 argument  1 = Lu1.nw



============================== echo of input deck ==============================
title "swnc: e theory=pspw xc=pbe formula=H130O65lu1 charge=0 mult=3"
#machinejob:expert

permanent_dir ./perm
scratch_dir   ./perm

echo

start pspw-pbe-Lu1

memory 2300 mb

charge 0

geometry
Lu 0.0 0.0 0.0
end


nwpw
  simulation_cell
     SC 26.0
     #boundary_conditions aperiodic
  end

  ### pseudopotential block begin ###
  ### pseudopotential block end   ###
  2d-hcurve
  time_step 1.0
  cutoff 80.0
  lmbfgs

  mult 4
  xc pbe96

end
set nwpw:kbpp_ray    .true.
set nwpw:kbpp_filter .true.
#set nwpw:gram-schmidt .true.
set nwpw:cif_filename Lu1

#task pspw steepest_descent
task pspw energy ignore

================================================================================


                                         
                                         


             Northwest Computational Chemistry Package (NWChem) 7.2.0
             --------------------------------------------------------


                    Environmental Molecular Sciences Laboratory
                       Pacific Northwest National Laboratory
                                Richland, WA 99352

                              Copyright (c) 1994-2022
                       Pacific Northwest National Laboratory
                            Battelle Memorial Institute

             NWChem is an open-source computational chemistry package
                        distributed under the terms of the
                      Educational Community License (ECL) 2.0
             A copy of the license is included with this distribution
                              in the LICENSE.TXT file

                                  ACKNOWLEDGMENT
                                  --------------

            This software and its documentation were developed at the
            EMSL at Pacific Northwest National Laboratory, a multiprogram
            national laboratory, operated for the U.S. Department of Energy
            by Battelle under Contract Number DE-AC05-76RL01830. Support
            for this work was provided by the Department of Energy Office
            of Biological and Environmental Research, Office of Basic
            Energy Sciences, and the Office of Advanced Scientific Computing.


           Job information
           ---------------

    hostname        = Erics-MacBook-Pro.local
    program         = nwchem
    date            = Mon Apr 24 20:24:21 2023

    compiled        = Mon_Mar_27_19:09:42_2023
    source          = /Users/bylaska/nwchem-releases/nwchem
    nwchem branch   = 7.2.0
    nwchem revision = v7.2.0-beta1-380-gdf1eef5276
    ga revision     = 5.8.0
    use scalapack   = F
    input           = Lu1.nw
    prefix          = pspw-pbe-Lu1.
    data base       = ./perm/pspw-pbe-Lu1.db
    status          = startup
    nproc           =        6
    time left       =     -1s



           Memory information
           ------------------

    heap     =   75366396 doubles =    575.0 Mbytes
    stack    =   75366401 doubles =    575.0 Mbytes
    global   =  150732800 doubles =   1150.0 Mbytes (distinct from heap & stack)
    total    =  301465597 doubles =   2300.0 Mbytes
    verify   = yes
    hardfail = no 


           Directory information
           ---------------------

  0 permanent = ./perm
  0 scratch   = ./perm




                                NWChem Input Module
                                -------------------


           swnc: e theory=pspw xc=pbe formula=H130O65lu1 charge=0 mult=3
           -------------------------------------------------------------

 Scaling coordinates for geometry "geometry" by  1.889725989
 (inverse scale =  0.529177249)



                             Geometry "geometry" -> ""
                             -------------------------

 Output coordinates in angstroms (scale by  1.889725989 to convert to a.u.)

  No.       Tag          Charge          X              Y              Z
 ---- ---------------- ---------- -------------- -------------- --------------
    1 Lu                  71.0000     0.00000000     0.00000000     0.00000000

      Atomic Mass 
      ----------- 

      Lu               174.940900


 Effective nuclear repulsion energy (a.u.)       0.0000000000

            Nuclear Dipole moment (a.u.) 
            ----------------------------
        X                 Y               Z
 ---------------- ---------------- ----------------
     0.0000000000     0.0000000000     0.0000000000


            XYZ format geometry
            -------------------
     1
 geometry
 Lu                    0.00000000     0.00000000     0.00000000

          ****************************************************
          *                                                  *
          *               NWPW PSPW Calculation              *
          *                                                  *
          * [ (Grassmann/Stiefel manifold implementation)  ] *
          *                                                  *
          *      [ NorthWest Chemistry implementation ]      *
          *                                                  *
          *            version #5.10   06/12/02              *
          *                                                  *
          *    This code was developed by Eric J. Bylaska,   *
          *    and was based upon algorithms and code        *
          *    developed by the group of Prof. John H. Weare *
          *                                                  *
          ****************************************************
     >>>  JOB STARTED       AT Mon Apr 24 20:24:21 2023  <<<
          ================ input data ========================
  library name resolved from: compiled reference
  NWCHEM_NWPW_LIBRARY set to: </Users/bylaska/nwchem-releases/nwchem/src/nwpw/libraryps/>
 Generating 1d pseudopotential for Lu  

 Generated formatted_filename: ./perm/Lu.vpp
 - filtering pseudopotential -
 random planewave guess, initial psi:pspw-pbe-Lu1.movecs                               
 -   spin, nalpha, nbeta:                    2                   14                   11

 input psi filename:./perm/pspw-pbe-Lu1.movecs

 Warning - K.S. orbitals are not orthonormal. Applying Gram-Schmidt orthonormalization.
         - exact norm=0.250000E+02 norm=0.159987E+02 corrected norm=0.250000E+02 (error=0.900129E+01)


 number of processors used:         6
 processor grid           :   6 x   1
 parallel mapping         : 2d-hcurve
 parallel mapping         :  balanced
 number of threads        :         1
 parallel io              :       off

 options:
      boundary conditions  = periodic    (version3)
      electron spin        = unrestricted
      exchange-correlation = PBE96 (White and Bird) parameterization

 elements involved in the cluster:
      1: Lu  valence charge: 25.0000  lmax=  3
             comment    : Parameterized Lu TM psp (4f5s5p5d6s6p projectors, 4/5/2022 by EJB)
             pseudpotential type            :   0
             highest angular component      :   3
             local potential used           :   0
             number of non-local projections:  25
             semicore corrections included  :  0.800 (radius)  8.715 (charge)
             cutoff =   1.618   1.828   1.813   1.403


 total charge:   0.000

 atomic composition:
     Lu  :    1

 number of electrons: spin up=    14 (  14 per task)  down=    11 (  11 per task) (Fourier space)
 number of orbitals : spin up=    14 (  14 per task)  down=    11 (  11 per task) (Fourier space)

 supercell:
      cell_name:  cell_default                                      
      lattice:    a1=<  26.000   0.000   0.000 >
                  a2=<   0.000  26.000   0.000 >
                  a3=<   0.000   0.000  26.000 >
      reciprocal: b1=<   0.242   0.000   0.000 >
                  b2=<   0.000   0.242   0.000 >
                  b3=<   0.000   0.000   0.242 >
      lattice:    a=      26.000 b=     26.000 c=      26.000
                  alpha=  90.000 beta=  90.000 gamma=  90.000
                  omega=     17576.0

      density cutoff= 40.000  fft= 80x 80x 80(   106048 waves    17674 per task)
      wavefnc cutoff= 20.000  fft= 80x 80x 80(    37447 waves     6241 per task)
      Ewald summation: cut radius=    8.28  and  1
                       Madelung Wigner-Seitz=    1.76011888 (alpha=    2.83729748 rs=16.12911276)

 technical parameters:
      time step=      1.00     fictitious mass=  400000.0
      tolerance=0.100E-06 (energy)   0.100E-06 (density)
      maximum iterations =      1000 (   10 inner    100 outer )





== Energy Calculation ==


          ============ Grassmann lmbfgs iteration ============
     >>>  ITERATION STARTED AT Mon Apr 24 20:24:24 2023  <<<
    iter.           Energy         DeltaE       DeltaRho 
    ------------------------------------------------------
     -  15 steepest descent iterations performed
      10   -0.2367850856E+03   -0.21963E+01    0.21674E+02
     -  10 steepest descent iterations performed
      20   -0.2417007294E+03   -0.84347E-01    0.12642E+00
     -  10 steepest descent iterations performed
      30   -0.2419098086E+03   -0.49195E-02    0.19757E-02
      40   -0.2419703530E+03   -0.64862E-02    0.94095E-03
     -  10 steepest descent iterations performed
      50   -0.2420116475E+03   -0.18698E-02    0.51469E-03
      60   -0.2420190465E+03   -0.30106E-03    0.11479E-03
      70   -0.2420200082E+03   -0.16747E-04    0.11237E-04
      80   -0.2420200579E+03   -0.11950E-05    0.46789E-06
      90   -0.2420200620E+03   -0.13480E-06    0.32636E-07
     100   -0.2420200621E+03   -0.96431E-07    0.28201E-09
  *** tolerance ok. iteration terminated
     >>>  ITERATION ENDED   AT Mon Apr 24 20:24:46 2023  <<<


==  Summary Of Results  ==

 number of electrons: spin up=   14.00000  down=   11.00000 (real space)

 total     energy    :  -0.2420200621E+03 (   -0.24202E+03/ion)
 total orbital energy:  -0.4405380191E+02 (   -0.17622E+01/electron)
 hartree   energy    :   0.1578142528E+03 (    0.63126E+01/electron)
 exc-corr  energy    :  -0.3103512547E+02 (   -0.12414E+01/electron)
 ion-ion   energy    :  -0.3410213317E+02 (   -0.34102E+02/ion)

 kinetic (planewave) :   0.6027640658E+02 (    0.24111E+01/electron)
 V_local (planewave) :  -0.3961576579E+03 (   -0.15846E+02/electron)
 V_nl    (planewave) :   0.1184195051E+01 (    0.47368E-01/electron)
 V_Coul  (planewave) :   0.3156285056E+03 (    0.12625E+02/electron)
 V_xc.   (planewave) :  -0.2498525119E+02 (   -0.99941E+00/electron)
 Virial Coefficient  :  -0.1730863109E+01

 orbital energies:
    -0.1460491E+00 (  -3.974eV)
    -0.3073328E+00 (  -8.363eV)
    -0.3363682E+00 (  -9.153eV)
    -0.3364229E+00 (  -9.155eV)    -0.2900876E+00 (  -7.894eV)
    -0.1044263E+01 ( -28.416eV)    -0.1038591E+01 ( -28.262eV)
    -0.1052266E+01 ( -28.634eV)    -0.1043333E+01 ( -28.391eV)
    -0.1052291E+01 ( -28.635eV)    -0.1043422E+01 ( -28.393eV)
    -0.1070412E+01 ( -29.128eV)    -0.1054791E+01 ( -28.703eV)
    -0.1070432E+01 ( -29.128eV)    -0.1055077E+01 ( -28.710eV)
    -0.1157926E+01 ( -31.509eV)    -0.1135255E+01 ( -30.892eV)
    -0.3271832E+01 ( -89.032eV)    -0.3267920E+01 ( -88.925eV)
    -0.3292337E+01 ( -89.590eV)    -0.3282870E+01 ( -89.332eV)
    -0.3292349E+01 ( -89.590eV)    -0.3282878E+01 ( -89.332eV)
    -0.5068401E+01 (-137.919eV)    -0.5060895E+01 (-137.715eV)

 Total PSPW energy     :  -0.2420200621E+03


=== Spin Contamination ===

 <Sexact^2> =    3.7500000000000000     
 <S^2>      =    3.7530199856149551     



== Center of Charge ==

spin up     (   -0.0001,    0.0002,    0.0001 )
spin down   (   -0.0000,   -0.0000,    0.0000 )
     total  (   -0.0001,    0.0001,    0.0001 )
ionic       (    0.0000,    0.0000,    0.0000 )


== Molecular Dipole wrt Center of Mass ==

mu   =  (    0.0020,   -0.0019,   -0.0016 ) au
|mu| =     0.0032 au,       0.0082 Debye

 output psi filename:./perm/pspw-pbe-Lu1.movecs

 Writing Crystallographic Information File:./perm/Lu1.cif
   - cell not shifted (nwpw:cif_shift_cell .false.)


== Timing ==

cputime in seconds
  prologue    :   0.275862E+01
  main loop   :   0.224140E+02
  epilogue    :   0.178295E+00
  total       :   0.253509E+02
  cputime/step:   0.903790E-01       (     248 evalulations,      91 linesearches)


Time spent doing                        total          step       percent
  total time                 :   0.253532E+02  0.102231E+00       100.0 %
  i/o time                   :   0.269920E+01  0.108839E-01        10.6 %
  FFTs                       :   0.368020E+01  0.148395E-01        14.5 %
  dot products               :   0.986922E+00  0.397953E-02         3.9 %
  geodesic                   :   0.172065E+01  0.693810E-02         6.8 %
  ffm_dgemm                  :   0.245861E+00  0.991376E-03         1.0 %
  fmf_dgemm                  :   0.107317E+01  0.432731E-02         4.2 %
  mmm_dgemm                  :   0.452745E-02  0.182559E-04         0.0 %
  m_diagonalize              :   0.395892E-02  0.159634E-04         0.0 %
  exchange correlation       :   0.823202E+01  0.331936E-01        32.5 %
  local pseudopotentials     :   0.146000E-03  0.588710E-06         0.0 %
  non-local pseudopotentials :   0.604095E+00  0.243587E-02         2.4 %
  hartree potentials         :   0.262640E-01  0.105903E-03         0.1 %
  ion-ion interaction        :   0.164700E-02  0.664113E-05         0.0 %
  structure factors          :   0.584176E-02  0.235555E-04         0.0 %
  phase factors              :   0.199900E-05  0.806048E-08         0.0 %
  masking and packing        :   0.124473E+01  0.501905E-02         4.9 %
  queue fft                  :   0.917416E+01  0.369926E-01        36.2 %
  queue fft (serial)         :   0.370765E+01  0.149502E-01        14.6 %
  queue fft (message passing):   0.526375E+01  0.212248E-01        20.8 %
  non-local psp FFM          :   0.311041E+00  0.125420E-02         1.2 %
  non-local psp FMF          :   0.240328E+00  0.969065E-03         0.9 %
  non-local psp FFM A        :   0.452838E-01  0.182596E-03         0.2 %
  non-local psp FFM B        :   0.245594E+00  0.990298E-03         1.0 %

     >>>  JOB COMPLETED     AT Mon Apr 24 20:24:46 2023  <<<
          ****************************************************
          *                                                  *
          *               NWPW PSPW Calculation              *
          *                                                  *
          * [ (Grassmann/Stiefel manifold implementation)  ] *
          *                                                  *
          *      [ NorthWest Chemistry implementation ]      *
          *                                                  *
          *            version #5.10   06/12/02              *
          *                                                  *
          *    This code was developed by Eric J. Bylaska,   *
          *    and was based upon algorithms and code        *
          *    developed by the group of Prof. John H. Weare *
          *                                                  *
          ****************************************************
     >>>  JOB STARTED       AT Mon Apr 24 20:24:46 2023  <<<
          ================ input data ========================
 pseudopotential is not correctly formatted:Lu.vpp                                            

 Generated formatted_filename: ./perm/Lu.vpp
 - filtering pseudopotential -
 Error reading psi - bad grid
 nfft :                   80                   80                   80
 ngrid:                  108                  108                  108
 Error reading psi - bad grid
 nfft :                   80                   80                   80
 ngrid:                  108                  108                  108
 Error reading psi - bad grid

 Grid is being converted:
 ------------------------

 To turn off automatic grid conversion:

 set nwpw:psi_nogrid .false.

 old_filename: pspw-pbe-Lu1.movecs                               
 new_filename: pspw-pbe-Lu1.movecs                               
 converting  :  80x 80x 80 --> 108x108x108
converting .... psi:    1 spin: 1
converting .... psi:    2 spin: 1
converting .... psi:    3 spin: 1
converting .... psi:    4 spin: 1
converting .... psi:    5 spin: 1
converting .... psi:    6 spin: 1
converting .... psi:    7 spin: 1
converting .... psi:    8 spin: 1
converting .... psi:    9 spin: 1
converting .... psi:   10 spin: 1
converting .... psi:   11 spin: 1
converting .... psi:   12 spin: 1
converting .... psi:   13 spin: 1
converting .... psi:   14 spin: 1
converting .... psi:    1 spin: 2
converting .... psi:    2 spin: 2
converting .... psi:    3 spin: 2
converting .... psi:    4 spin: 2
converting .... psi:    5 spin: 2
converting .... psi:    6 spin: 2
converting .... psi:    7 spin: 2
converting .... psi:    8 spin: 2
converting .... psi:    9 spin: 2
converting .... psi:   10 spin: 2
converting .... psi:   11 spin: 2

 input psi filename:./perm/pspw-pbe-Lu1.movecs

 number of processors used:         6
 processor grid           :   6 x   1
 parallel mapping         : 2d-hcurve
 parallel mapping         :  balanced
 number of threads        :         1
 parallel io              :       off

 options:
      boundary conditions  = periodic    (version3)
      electron spin        = unrestricted
      exchange-correlation = PBE96 (White and Bird) parameterization

 elements involved in the cluster:
      1: Lu  valence charge: 25.0000  lmax=  3
             comment    : Parameterized Lu TM psp (4f5s5p5d6s6p projectors, 4/5/2022 by EJB)
             pseudpotential type            :   0
             highest angular component      :   3
             local potential used           :   0
             number of non-local projections:  25
             semicore corrections included  :  0.800 (radius)  8.722 (charge)
             cutoff =   1.618   1.828   1.813   1.403


 total charge:   0.000

 atomic composition:
     Lu  :    1

 number of electrons: spin up=    14 (  14 per task)  down=    11 (  11 per task) (Fourier space)
 number of orbitals : spin up=    14 (  14 per task)  down=    11 (  11 per task) (Fourier space)

 supercell:
      cell_name:  cell_default                                      
      lattice:    a1=<  26.000   0.000   0.000 >
                  a2=<   0.000  26.000   0.000 >
                  a3=<   0.000   0.000  26.000 >
      reciprocal: b1=<   0.242   0.000   0.000 >
                  b2=<   0.000   0.242   0.000 >
                  b3=<   0.000   0.000   0.242 >
      lattice:    a=      26.000 b=     26.000 c=      26.000
                  alpha=  90.000 beta=  90.000 gamma=  90.000
                  omega=     17576.0

      density cutoff= 80.000  fft=108x108x108(   300163 waves    50028 per task)
      wavefnc cutoff= 40.000  fft=108x108x108(   106048 waves    17674 per task)
      Ewald summation: cut radius=    8.28  and  1
                       Madelung Wigner-Seitz=    1.76011888 (alpha=    2.83729748 rs=16.12911276)

 technical parameters:
      time step=      1.00     fictitious mass=  400000.0
      tolerance=0.100E-06 (energy)   0.100E-06 (density)
      maximum iterations =      1000 (   10 inner    100 outer )





== Energy Calculation ==


          ============ Grassmann lmbfgs iteration ============
     >>>  ITERATION STARTED AT Mon Apr 24 20:24:52 2023  <<<
    iter.           Energy         DeltaE       DeltaRho 
    ------------------------------------------------------
      10   -0.2428530942E+03   -0.71631E+00    0.44247E+00
     -  10 steepest descent iterations performed
      20   -0.2449604139E+03   -0.33371E-01    0.17580E+00
     -  10 steepest descent iterations performed
      30   -0.2453986437E+03   -0.28487E-01    0.94175E-01
     -  10 steepest descent iterations performed
      40   -0.2458502149E+03   -0.45775E-01    0.40452E+00
     -  10 steepest descent iterations performed
      50   -0.2460542304E+03   -0.39804E-02    0.17078E-01
      60   -0.2460822241E+03   -0.13684E-02    0.54087E-01
      70   -0.2460893252E+03   -0.34368E-03    0.11256E-01
      80   -0.2460926253E+03   -0.51020E-03    0.91305E-02
     -  10 steepest descent iterations performed
      90   -0.2460953348E+03   -0.30163E-03    0.24218E-02
     100   -0.2461002206E+03   -0.68193E-03    0.41795E-01
     -  10 steepest descent iterations performed
     110   -0.2461053088E+03   -0.53661E-03    0.29435E-02
     120   -0.2461186555E+03   -0.25132E-02    0.57246E-01
     -  10 steepest descent iterations performed
     130   -0.2461428504E+03   -0.23541E-02    0.19296E-01
     140   -0.2461565174E+03   -0.38370E-03    0.28329E-01
     150   -0.2461627684E+03   -0.28691E-03    0.11157E-01
     160   -0.2461661296E+03   -0.41778E-03    0.74061E-02
     -  10 steepest descent iterations performed
     170   -0.2461680777E+03   -0.16658E-03    0.10286E-02
     180   -0.2461697486E+03   -0.16137E-03    0.24068E-02
     190   -0.2461730671E+03   -0.47189E-03    0.11780E-01
     -  10 steepest descent iterations performed
     200   -0.2461749287E+03   -0.14633E-03    0.59952E-03
     210   -0.2461765087E+03   -0.13152E-03    0.31161E-02
     220   -0.2461779334E+03   -0.13790E-03    0.26070E-02
     -  10 steepest descent iterations performed
     230   -0.2461791643E+03   -0.12149E-03    0.48749E-03
     240   -0.2461804944E+03   -0.12667E-03    0.19444E-02
     -  10 steepest descent iterations performed
     250   -0.2461813104E+03   -0.92394E-04    0.37367E-03
     260   -0.2461826509E+03   -0.89507E-04    0.27652E-02
     270   -0.2461844911E+03   -0.10070E-03    0.34525E-02
     -  10 steepest descent iterations performed
     280   -0.2461855620E+03   -0.70236E-04    0.52219E-03
     290   -0.2461859539E+03   -0.34375E-04    0.49805E-03
     300   -0.2461861621E+03   -0.21879E-04    0.19499E-03
     310   -0.2461867753E+03   -0.29285E-04    0.25124E-02
     -  10 steepest descent iterations performed
     320   -0.2461869588E+03   -0.20637E-04    0.98188E-04
     330   -0.2461870661E+03   -0.11300E-04    0.17363E-03
     340   -0.2461871288E+03   -0.50521E-05    0.66659E-04
     350   -0.2461872270E+03   -0.67919E-05    0.23589E-03
     -  10 steepest descent iterations performed
     360   -0.2461872804E+03   -0.39941E-05    0.20986E-04
     370   -0.2461873116E+03   -0.24685E-05    0.44023E-04
     380   -0.2461873388E+03   -0.21796E-05    0.48703E-04
     390   -0.2461873690E+03   -0.21661E-05    0.64498E-04
     400   -0.2461874234E+03   -0.46411E-05    0.21605E-03
     -  10 steepest descent iterations performed
     410   -0.2461874462E+03   -0.19631E-05    0.75148E-05
     420   -0.2461874560E+03   -0.12042E-05    0.12108E-04
     430   -0.2461874652E+03   -0.89176E-06    0.15298E-04
     440   -0.2461874733E+03   -0.10096E-05    0.14829E-04
     -  10 steepest descent iterations performed
     450   -0.2461874784E+03   -0.48358E-06    0.15033E-05
     460   -0.2461874858E+03   -0.53592E-06    0.14620E-04
     -  10 steepest descent iterations performed
     470   -0.2461874892E+03   -0.33377E-06    0.10053E-05
     480   -0.2461874931E+03   -0.46723E-06    0.40446E-05
     -  10 steepest descent iterations performed
     490   -0.2461874965E+03   -0.29503E-06    0.87120E-06
     500   -0.2461874996E+03   -0.25715E-06    0.23328E-05
     510   -0.2461875195E+03   -0.87235E-06    0.11524E-03
     -  10 steepest descent iterations performed
     520   -0.2461875274E+03   -0.45042E-06    0.32681E-05
     530   -0.2461875287E+03   -0.13456E-06    0.14938E-05
     540   -0.2461875289E+03   -0.99212E-07    0.55776E-07
  *** tolerance ok. iteration terminated
     >>>  ITERATION ENDED   AT Mon Apr 24 20:30:20 2023  <<<


==  Summary Of Results  ==

 number of electrons: spin up=   14.00000  down=   11.00000 (real space)

 total     energy    :  -0.2461875289E+03 (   -0.24619E+03/ion)
 total orbital energy:  -0.2487056953E+02 (   -0.99482E+00/electron)
 hartree   energy    :   0.1817163024E+03 (    0.72687E+01/electron)
 exc-corr  energy    :  -0.3379005115E+02 (   -0.13516E+01/electron)
 ion-ion   energy    :  -0.3410213317E+02 (   -0.34102E+02/ion)

 kinetic (planewave) :   0.1145050832E+03 (    0.45802E+01/electron)
 V_local (planewave) :  -0.4271699483E+03 (   -0.17087E+02/electron)
 V_nl    (planewave) :  -0.4734678190E+02 (   -0.18939E+01/electron)
 V_Coul  (planewave) :   0.3634326047E+03 (    0.14537E+02/electron)
 V_xc.   (planewave) :  -0.2829152732E+02 (   -0.11317E+01/electron)
 Virial Coefficient  :  -0.1217200572E+01

 orbital energies:
    -0.2594838E+00 (  -7.061eV)
    -0.2613770E+00 (  -7.112eV)
    -0.2729819E+00 (  -7.428eV)
    -0.2993487E+00 (  -8.146eV)    -0.2319100E+00 (  -6.311eV)
    -0.3009113E+00 (  -8.188eV)    -0.2330109E+00 (  -6.341eV)
    -0.3056586E+00 (  -8.317eV)    -0.2333533E+00 (  -6.350eV)
    -0.3109188E+00 (  -8.461eV)    -0.2482345E+00 (  -6.755eV)
    -0.3160637E+00 (  -8.601eV)    -0.2528025E+00 (  -6.879eV)
    -0.3224950E+00 (  -8.776eV)    -0.2544606E+00 (  -6.924eV)
    -0.4450548E+00 ( -12.111eV)    -0.4207806E+00 ( -11.450eV)
    -0.2115037E+01 ( -57.554eV)    -0.2046395E+01 ( -55.686eV)
    -0.2117369E+01 ( -57.617eV)    -0.2048476E+01 ( -55.742eV)
    -0.2143591E+01 ( -58.331eV)    -0.2055334E+01 ( -55.929eV)
    -0.3728515E+01 (-101.459eV)    -0.3647006E+01 ( -99.241eV)

 Total PSPW energy     :  -0.2461875289E+03


=== Spin Contamination ===

 <Sexact^2> =    3.7500000000000000     
 <S^2>      =    6.3859942965502903     



== Center of Charge ==

spin up     (   -0.0294,   -0.0433,    0.0286 )
spin down   (    0.0389,    0.0575,   -0.0378 )
     total  (    0.0007,    0.0010,   -0.0006 )
ionic       (    0.0000,    0.0000,    0.0000 )


== Molecular Dipole wrt Center of Mass ==

mu   =  (   -0.0165,   -0.0256,    0.0160 ) au
|mu| =     0.0344 au,       0.0874 Debye

 output psi filename:./perm/pspw-pbe-Lu1.movecs

 Writing Crystallographic Information File:./perm/Lu1.cif
   - cell not shifted (nwpw:cif_shift_cell .false.)


== Timing ==

cputime in seconds
  prologue    :   0.551901E+01
  main loop   :   0.328820E+03
  epilogue    :   0.381856E+00
  total       :   0.334721E+03
  cputime/step:   0.238794E+00       (    1377 evalulations,     532 linesearches)


Time spent doing                        total          step       percent
  total time                 :   0.334723E+03  0.243081E+00       100.0 %
  i/o time                   :   0.530313E+01  0.385122E-02         1.6 %
  FFTs                       :   0.553038E+02  0.401626E-01        16.5 %
  dot products               :   0.135417E+02  0.983417E-02         4.0 %
  geodesic                   :   0.271220E+02  0.196964E-01         8.1 %
  ffm_dgemm                  :   0.385546E+01  0.279990E-02         1.2 %
  fmf_dgemm                  :   0.191979E+02  0.139418E-01         5.7 %
  mmm_dgemm                  :   0.268201E-01  0.194772E-04         0.0 %
  m_diagonalize              :   0.224345E-01  0.162923E-04         0.0 %
  exchange correlation       :   0.118550E+03  0.860927E-01        35.4 %
  local pseudopotentials     :   0.429000E-03  0.311547E-06         0.0 %
  non-local pseudopotentials :   0.103636E+02  0.752622E-02         3.1 %
  hartree potentials         :   0.387969E+00  0.281749E-03         0.1 %
  ion-ion interaction        :   0.291830E-01  0.211932E-04         0.0 %
  structure factors          :   0.817467E-01  0.593658E-04         0.0 %
  phase factors              :   0.299900E-05  0.217792E-08         0.0 %
  masking and packing        :   0.160074E+02  0.116248E-01         4.8 %
  queue fft                  :   0.131792E+03  0.957096E-01        39.4 %
  queue fft (serial)         :   0.535385E+02  0.388806E-01        16.0 %
  queue fft (message passing):   0.741526E+02  0.538508E-01        22.2 %
  non-local psp FFM          :   0.500727E+01  0.363636E-02         1.5 %
  non-local psp FMF          :   0.449019E+01  0.326085E-02         1.3 %
  non-local psp FFM A        :   0.736420E+00  0.534800E-03         0.2 %
  non-local psp FFM B        :   0.407860E+01  0.296195E-02         1.2 %

     >>>  JOB COMPLETED     AT Mon Apr 24 20:30:21 2023  <<<
          ****************************************************
          *                                                  *
          *               NWPW PSPW Calculation              *
          *                                                  *
          * [ (Grassmann/Stiefel manifold implementation)  ] *
          *                                                  *
          *      [ NorthWest Chemistry implementation ]      *
          *                                                  *
          *            version #5.10   06/12/02              *
          *                                                  *
          *    This code was developed by Eric J. Bylaska,   *
          *    and was based upon algorithms and code        *
          *    developed by the group of Prof. John H. Weare *
          *                                                  *
          ****************************************************
     >>>  JOB STARTED       AT Mon Apr 24 20:30:21 2023  <<<
          ================ input data ========================
 pseudopotential is not correctly formatted:Lu.vpp                                            

 Generated formatted_filename: ./perm/Lu.vpp
 - filtering pseudopotential -
 Error reading psi - bad grid
 nfft :                  108                  108                  108
 ngrid:                  140                  140                  140
 Error reading psi - bad grid
 nfft :                  108                  108                  108
 ngrid:                  140                  140                  140
 Error reading psi - bad grid

 Grid is being converted:
 ------------------------

 To turn off automatic grid conversion:

 set nwpw:psi_nogrid .false.

 old_filename: pspw-pbe-Lu1.movecs                               
 new_filename: pspw-pbe-Lu1.movecs                               
 converting  : 108x108x108 --> 140x140x140
converting .... psi:    1 spin: 1
converting .... psi:    2 spin: 1
converting .... psi:    3 spin: 1
converting .... psi:    4 spin: 1
converting .... psi:    5 spin: 1
converting .... psi:    6 spin: 1
converting .... psi:    7 spin: 1
converting .... psi:    8 spin: 1
converting .... psi:    9 spin: 1
converting .... psi:   10 spin: 1
converting .... psi:   11 spin: 1
converting .... psi:   12 spin: 1
converting .... psi:   13 spin: 1
converting .... psi:   14 spin: 1
converting .... psi:    1 spin: 2
converting .... psi:    2 spin: 2
converting .... psi:    3 spin: 2
converting .... psi:    4 spin: 2
converting .... psi:    5 spin: 2
converting .... psi:    6 spin: 2
converting .... psi:    7 spin: 2
converting .... psi:    8 spin: 2
converting .... psi:    9 spin: 2
converting .... psi:   10 spin: 2
converting .... psi:   11 spin: 2

 input psi filename:./perm/pspw-pbe-Lu1.movecs

 number of processors used:         6
 processor grid           :   6 x   1
 parallel mapping         : 2d-hcurve
 parallel mapping         :  balanced
 number of threads        :         1
 parallel io              :       off

 options:
      boundary conditions  = periodic    (version3)
      electron spin        = unrestricted
      exchange-correlation = PBE96 (White and Bird) parameterization

 elements involved in the cluster:
      1: Lu  valence charge: 25.0000  lmax=  3
             comment    : Parameterized Lu TM psp (4f5s5p5d6s6p projectors, 4/5/2022 by EJB)
             pseudpotential type            :   0
             highest angular component      :   3
             local potential used           :   0
             number of non-local projections:  25
             semicore corrections included  :  0.800 (radius)  8.723 (charge)
             cutoff =   1.618   1.828   1.813   1.403


 total charge:   0.000

 atomic composition:
     Lu  :    1

 number of electrons: spin up=    14 (  14 per task)  down=    11 (  11 per task) (Fourier space)
 number of orbitals : spin up=    14 (  14 per task)  down=    11 (  11 per task) (Fourier space)

 supercell:
      cell_name:  cell_default                                      
      lattice:    a1=<  26.000   0.000   0.000 >
                  a2=<   0.000  26.000   0.000 >
                  a3=<   0.000   0.000  26.000 >
      reciprocal: b1=<   0.242   0.000   0.000 >
                  b2=<   0.000   0.242   0.000 >
                  b3=<   0.000   0.000   0.242 >
      lattice:    a=      26.000 b=     26.000 c=      26.000
                  alpha=  90.000 beta=  90.000 gamma=  90.000
                  omega=     17576.0

      density cutoff=120.000  fft=140x140x140(   551891 waves    91981 per task)
      wavefnc cutoff= 60.000  fft=140x140x140(   195216 waves    32536 per task)
      Ewald summation: cut radius=    8.28  and  1
                       Madelung Wigner-Seitz=    1.76011888 (alpha=    2.83729748 rs=16.12911276)

 technical parameters:
      time step=      1.00     fictitious mass=  400000.0
      tolerance=0.100E-06 (energy)   0.100E-06 (density)
      maximum iterations =      1000 (   10 inner    100 outer )





== Energy Calculation ==


          ============ Grassmann lmbfgs iteration ============
     >>>  ITERATION STARTED AT Mon Apr 24 20:30:36 2023  <<<
    iter.           Energy         DeltaE       DeltaRho 
    ------------------------------------------------------
      10   -0.2625085323E+03   -0.26487E+00    0.57767E+01
     -  10 steepest descent iterations performed
      20   -0.2639364546E+03   -0.16178E+00    0.49315E+00
     -  10 steepest descent iterations performed
      30   -0.2645389663E+03   -0.41005E-01    0.16280E+00
     -  10 steepest descent iterations performed
      40   -0.2650624552E+03   -0.26669E-01    0.29395E+00
     -  10 steepest descent iterations performed
      50   -0.2652494344E+03   -0.81707E-02    0.48626E-01
      60   -0.2652962229E+03   -0.91167E-03    0.65929E-02
      70   -0.2652986629E+03   -0.10821E-03    0.18605E-03
      80   -0.2652995623E+03   -0.82638E-04    0.56969E-03
      90   -0.2653009455E+03   -0.23800E-03    0.51597E-02
     -  10 steepest descent iterations performed
     100   -0.2653029104E+03   -0.27827E-03    0.44320E-03
     -  10 steepest descent iterations performed
     110   -0.2653056810E+03   -0.46798E-03    0.11707E-02
     -  10 steepest descent iterations performed
     120   -0.2653109172E+03   -0.61569E-03    0.12646E-02
     -  10 steepest descent iterations performed
     130   -0.2653188531E+03   -0.92516E-03    0.34136E-02
     -  10 steepest descent iterations performed
     140   -0.2653282454E+03   -0.75178E-03    0.28866E-02
     150   -0.2653582933E+03   -0.22237E-02    0.10682E+00
     -  10 steepest descent iterations performed
     160   -0.2653610363E+03   -0.11943E-03    0.99820E-04
     170   -0.2653619896E+03   -0.11681E-03    0.15674E-03
     180   -0.2653628912E+03   -0.84844E-04    0.28655E-03
     190   -0.2653637002E+03   -0.72928E-04    0.47418E-03
     200   -0.2653643707E+03   -0.46901E-04    0.37914E-03
     210   -0.2653646762E+03   -0.23315E-04    0.52635E-04
     220   -0.2653648038E+03   -0.82542E-05    0.88364E-05
     230   -0.2653648447E+03   -0.26194E-05    0.10071E-05
     240   -0.2653648649E+03   -0.18896E-05    0.12790E-05
     250   -0.2653648859E+03   -0.22461E-05    0.41505E-05
     -  10 steepest descent iterations performed
     260   -0.2653648981E+03   -0.10385E-05    0.37494E-06
     270   -0.2653649070E+03   -0.73255E-06    0.69575E-06
     280   -0.2653649136E+03   -0.54370E-06    0.12402E-05
     290   -0.2653649185E+03   -0.46750E-06    0.10923E-05
     300   -0.2653649224E+03   -0.32029E-06    0.88939E-06
     310   -0.2653649248E+03   -0.15287E-06    0.52849E-06
     320   -0.2653649254E+03   -0.98076E-07    0.34372E-07
  *** tolerance ok. iteration terminated
     >>>  ITERATION ENDED   AT Mon Apr 24 20:38:57 2023  <<<


==  Summary Of Results  ==

 number of electrons: spin up=   14.00000  down=   11.00000 (real space)

 total     energy    :  -0.2653649254E+03 (   -0.26536E+03/ion)
 total orbital energy:  -0.1435494313E+02 (   -0.57420E+00/electron)
 hartree   energy    :   0.2115869826E+03 (    0.84635E+01/electron)
 exc-corr  energy    :  -0.3815516120E+02 (   -0.15262E+01/electron)
 ion-ion   energy    :  -0.3410213317E+02 (   -0.34102E+02/ion)

 kinetic (planewave) :   0.2355305421E+03 (    0.94212E+01/electron)
 V_local (planewave) :  -0.4566597010E+03 (   -0.18266E+02/electron)
 V_nl    (planewave) :  -0.1835654547E+03 (   -0.73426E+01/electron)
 V_Coul  (planewave) :   0.4231739651E+03 (    0.16927E+02/electron)
 V_xc.   (planewave) :  -0.3283429462E+02 (   -0.13134E+01/electron)
 Virial Coefficient  :  -0.1060947268E+01

 orbital energies:
    -0.6753664E-01 (  -1.838eV)
    -0.6796641E-01 (  -1.849eV)
    -0.1721507E+00 (  -4.684eV)
    -0.1734668E+00 (  -4.720eV)    -0.1655015E+00 (  -4.504eV)
    -0.1746173E+00 (  -4.752eV)    -0.1658770E+00 (  -4.514eV)
    -0.1761506E+00 (  -4.793eV)    -0.1660464E+00 (  -4.518eV)
    -0.1767420E+00 (  -4.809eV)    -0.1688457E+00 (  -4.595eV)
    -0.1800144E+00 (  -4.898eV)    -0.1692329E+00 (  -4.605eV)
    -0.1822580E+00 (  -4.960eV)    -0.1696081E+00 (  -4.615eV)
    -0.1947948E+00 (  -5.301eV)    -0.1734314E+00 (  -4.719eV)
    -0.1180434E+01 ( -32.121eV)    -0.1155090E+01 ( -31.432eV)
    -0.1181386E+01 ( -32.147eV)    -0.1156905E+01 ( -31.481eV)
    -0.1181767E+01 ( -32.158eV)    -0.1157714E+01 ( -31.503eV)
    -0.2306480E+01 ( -62.763eV)    -0.2290926E+01 ( -62.340eV)

 Total PSPW energy     :  -0.2653649254E+03


=== Spin Contamination ===

 <Sexact^2> =    3.7500000000000000     
 <S^2>      =    3.7526802057385975     



== Center of Charge ==

spin up     (   -0.0004,    0.0001,   -0.0001 )
spin down   (    0.0000,   -0.0000,    0.0000 )
     total  (   -0.0002,    0.0001,   -0.0001 )
ionic       (    0.0000,    0.0000,    0.0000 )


== Molecular Dipole wrt Center of Mass ==

mu   =  (    0.0053,   -0.0013,    0.0013 ) au
|mu| =     0.0056 au,       0.0142 Debye

 output psi filename:./perm/pspw-pbe-Lu1.movecs

 Writing Crystallographic Information File:./perm/Lu1.cif
   - cell not shifted (nwpw:cif_shift_cell .false.)


== Timing ==

cputime in seconds
  prologue    :   0.149124E+02
  main loop   :   0.501681E+03
  epilogue    :   0.775634E+00
  total       :   0.517369E+03
  cputime/step:   0.619359E+00       (     810 evalulations,     315 linesearches)


Time spent doing                        total          step       percent
  total time                 :   0.517371E+03  0.638730E+00       100.0 %
  i/o time                   :   0.143516E+02  0.177180E-01         2.8 %
  FFTs                       :   0.983874E+02  0.121466E+00        19.0 %
  dot products               :   0.165671E+02  0.204533E-01         3.2 %
  geodesic                   :   0.313236E+02  0.386711E-01         6.1 %
  ffm_dgemm                  :   0.419857E+01  0.518342E-02         0.8 %
  fmf_dgemm                  :   0.210212E+02  0.259520E-01         4.1 %
  mmm_dgemm                  :   0.240019E-01  0.296320E-04         0.0 %
  m_diagonalize              :   0.139817E-01  0.172614E-04         0.0 %
  exchange correlation       :   0.178452E+03  0.220311E+00        34.5 %
  local pseudopotentials     :   0.664000E-03  0.819753E-06         0.0 %
  non-local pseudopotentials :   0.111763E+02  0.137979E-01         2.2 %
  hartree potentials         :   0.403480E+00  0.498123E-03         0.1 %
  ion-ion interaction        :   0.340920E-01  0.420889E-04         0.0 %
  structure factors          :   0.869153E-01  0.107303E-03         0.0 %
  phase factors              :   0.499900E-05  0.617160E-08         0.0 %
  masking and packing        :   0.226323E+02  0.279411E-01         4.4 %
  queue fft                  :   0.225341E+03  0.278199E+00        43.6 %
  queue fft (serial)         :   0.111365E+03  0.137488E+00        21.5 %
  queue fft (message passing):   0.109070E+03  0.134654E+00        21.1 %
  non-local psp FFM          :   0.554642E+01  0.684743E-02         1.1 %
  non-local psp FMF          :   0.471706E+01  0.582353E-02         0.9 %
  non-local psp FFM A        :   0.754746E+00  0.931786E-03         0.1 %
  non-local psp FFM B        :   0.461975E+01  0.570339E-02         0.9 %

     >>>  JOB COMPLETED     AT Mon Apr 24 20:38:58 2023  <<<
          ****************************************************
          *                                                  *
          *               NWPW PSPW Calculation              *
          *                                                  *
          * [ (Grassmann/Stiefel manifold implementation)  ] *
          *                                                  *
          *      [ NorthWest Chemistry implementation ]      *
          *                                                  *
          *            version #5.10   06/12/02              *
          *                                                  *
          *    This code was developed by Eric J. Bylaska,   *
          *    and was based upon algorithms and code        *
          *    developed by the group of Prof. John H. Weare *
          *                                                  *
          ****************************************************
     >>>  JOB STARTED       AT Mon Apr 24 20:38:58 2023  <<<
          ================ input data ========================
 pseudopotential is not correctly formatted:Lu.vpp                                            

 Generated formatted_filename: ./perm/Lu.vpp
 - filtering pseudopotential -
 Error reading psi - bad grid
 nfft :                  140                  140                  140
 ngrid:                  150                  150                  150
 Error reading psi - bad grid
 nfft :                  140                  140                  140
 ngrid:                  150                  150                  150
 Error reading psi - bad grid

 Grid is being converted:
 ------------------------

 To turn off automatic grid conversion:

 set nwpw:psi_nogrid .false.

 old_filename: pspw-pbe-Lu1.movecs                               
 new_filename: pspw-pbe-Lu1.movecs                               
 converting  : 140x140x140 --> 150x150x150
converting .... psi:    1 spin: 1
converting .... psi:    2 spin: 1
converting .... psi:    3 spin: 1
converting .... psi:    4 spin: 1
converting .... psi:    5 spin: 1
converting .... psi:    6 spin: 1
converting .... psi:    7 spin: 1
converting .... psi:    8 spin: 1
converting .... psi:    9 spin: 1
converting .... psi:   10 spin: 1
converting .... psi:   11 spin: 1
converting .... psi:   12 spin: 1
converting .... psi:   13 spin: 1
converting .... psi:   14 spin: 1
converting .... psi:    1 spin: 2
converting .... psi:    2 spin: 2
converting .... psi:    3 spin: 2
converting .... psi:    4 spin: 2
converting .... psi:    5 spin: 2
converting .... psi:    6 spin: 2
converting .... psi:    7 spin: 2
converting .... psi:    8 spin: 2
converting .... psi:    9 spin: 2
converting .... psi:   10 spin: 2
converting .... psi:   11 spin: 2

 input psi filename:./perm/pspw-pbe-Lu1.movecs

 number of processors used:         6
 processor grid           :   6 x   1
 parallel mapping         : 2d-hcurve
 parallel mapping         :  balanced
 number of threads        :         1
 parallel io              :       off

 options:
      boundary conditions  = periodic    (version3)
      electron spin        = unrestricted
      exchange-correlation = PBE96 (White and Bird) parameterization

 elements involved in the cluster:
      1: Lu  valence charge: 25.0000  lmax=  3
             comment    : Parameterized Lu TM psp (4f5s5p5d6s6p projectors, 4/5/2022 by EJB)
             pseudpotential type            :   0
             highest angular component      :   3
             local potential used           :   0
             number of non-local projections:  25
             semicore corrections included  :  0.800 (radius)  8.724 (charge)
             cutoff =   1.618   1.828   1.813   1.403


 total charge:   0.000

 atomic composition:
     Lu  :    1

 number of electrons: spin up=    14 (  14 per task)  down=    11 (  11 per task) (Fourier space)
 number of orbitals : spin up=    14 (  14 per task)  down=    11 (  11 per task) (Fourier space)

 supercell:
      cell_name:  cell_default                                      
      lattice:    a1=<  26.000   0.000   0.000 >
                  a2=<   0.000  26.000   0.000 >
                  a3=<   0.000   0.000  26.000 >
      reciprocal: b1=<   0.242   0.000   0.000 >
                  b2=<   0.000   0.242   0.000 >
                  b3=<   0.000   0.000   0.242 >
      lattice:    a=      26.000 b=     26.000 c=      26.000
                  alpha=  90.000 beta=  90.000 gamma=  90.000
                  omega=     17576.0

      density cutoff=160.000  fft=150x150x150(   849355 waves   141560 per task)
      wavefnc cutoff= 80.000  fft=150x150x150(   300163 waves    50027 per task)
      Ewald summation: cut radius=    8.28  and  1
                       Madelung Wigner-Seitz=    1.76011888 (alpha=    2.83729748 rs=16.12911276)

 technical parameters:
      time step=      1.00     fictitious mass=  400000.0
      tolerance=0.100E-06 (energy)   0.100E-06 (density)
      maximum iterations =      1000 (   10 inner    100 outer )





== Energy Calculation ==


          ============ Grassmann lmbfgs iteration ============
     >>>  ITERATION STARTED AT Mon Apr 24 20:39:18 2023  <<<
    iter.           Energy         DeltaE       DeltaRho 
    ------------------------------------------------------
      10   -0.2702731154E+03   -0.16926E-02    0.55068E+00
     -  10 steepest descent iterations performed
      20   -0.2702784846E+03   -0.22107E-03    0.16097E-03
      30   -0.2702792203E+03   -0.31795E-04    0.27071E-04
      40   -0.2702793406E+03   -0.54824E-05    0.13324E-05
      50   -0.2702793674E+03   -0.12134E-05    0.15653E-06
      60   -0.2702793737E+03   -0.33392E-06    0.36250E-07
      70   -0.2702793758E+03   -0.15190E-06    0.17164E-07
      80   -0.2702793763E+03   -0.95957E-07    0.37365E-08
  *** tolerance ok. iteration terminated
     >>>  ITERATION ENDED   AT Mon Apr 24 20:41:25 2023  <<<


==  Summary Of Results  ==

 number of electrons: spin up=   14.00000  down=   11.00000 (real space)

 total     energy    :  -0.2702793763E+03 (   -0.27028E+03/ion)
 total orbital energy:  -0.1587438700E+02 (   -0.63498E+00/electron)
 hartree   energy    :   0.2149933443E+03 (    0.85997E+01/electron)
 exc-corr  energy    :  -0.3863440045E+02 (   -0.15454E+01/electron)
 ion-ion   energy    :  -0.3410213317E+02 (   -0.34102E+02/ion)

 kinetic (planewave) :   0.2504522531E+03 (    0.10018E+02/electron)
 V_local (planewave) :  -0.4588018998E+03 (   -0.18352E+02/electron)
 V_nl    (planewave) :  -0.2041865403E+03 (   -0.81675E+01/electron)
 V_Coul  (planewave) :   0.4299866885E+03 (    0.17199E+02/electron)
 V_xc.   (planewave) :  -0.3332488854E+02 (   -0.13330E+01/electron)
 Virial Coefficient  :  -0.1063382888E+01

 orbital energies:
    -0.7972942E-01 (  -2.170eV)
    -0.8025722E-01 (  -2.184eV)
    -0.2033452E+00 (  -5.533eV)
    -0.3066333E+00 (  -8.344eV)    -0.2976320E+00 (  -8.099eV)
    -0.3093060E+00 (  -8.417eV)    -0.2977116E+00 (  -8.101eV)
    -0.3099167E+00 (  -8.433eV)    -0.2980496E+00 (  -8.110eV)
    -0.3100850E+00 (  -8.438eV)    -0.3008482E+00 (  -8.187eV)
    -0.3103462E+00 (  -8.445eV)    -0.3010630E+00 (  -8.192eV)
    -0.3130529E+00 (  -8.519eV)    -0.3017443E+00 (  -8.211eV)
    -0.3133223E+00 (  -8.526eV)    -0.3052655E+00 (  -8.307eV)
    -0.1144389E+01 ( -31.141eV)    -0.1120987E+01 ( -30.504eV)
    -0.1145276E+01 ( -31.165eV)    -0.1122694E+01 ( -30.550eV)
    -0.1145657E+01 ( -31.175eV)    -0.1123442E+01 ( -30.571eV)
    -0.2224359E+01 ( -60.528eV)    -0.2209274E+01 ( -60.118eV)

 Total PSPW energy     :  -0.2702793763E+03


=== Spin Contamination ===

 <Sexact^2> =    3.7500000000000000     
 <S^2>      =    3.7509672702424055     



== Center of Charge ==

spin up     (   -0.0004,    0.0001,   -0.0001 )
spin down   (    0.0000,   -0.0000,    0.0000 )
     total  (   -0.0002,    0.0000,   -0.0001 )
ionic       (    0.0000,    0.0000,    0.0000 )


== Molecular Dipole wrt Center of Mass ==

mu   =  (    0.0052,   -0.0012,    0.0015 ) au
|mu| =     0.0055 au,       0.0140 Debye

 output psi filename:./perm/pspw-pbe-Lu1.movecs

 Writing Crystallographic Information File:./perm/Lu1.cif
   - cell not shifted (nwpw:cif_shift_cell .false.)


== Timing ==

cputime in seconds
  prologue    :   0.196895E+02
  main loop   :   0.126969E+03
  epilogue    :   0.916192E+00
  total       :   0.147574E+03
  cputime/step:   0.705382E+00       (     180 evalulations,      75 linesearches)


Time spent doing                        total          step       percent
  total time                 :   0.147577E+03  0.819871E+00       100.0 %
  i/o time                   :   0.189525E+02  0.105292E+00        12.8 %
  FFTs                       :   0.227706E+02  0.126504E+00        15.4 %
  dot products               :   0.386879E+01  0.214933E-01         2.6 %
  geodesic                   :   0.800872E+01  0.444929E-01         5.4 %
  ffm_dgemm                  :   0.128871E+01  0.715951E-02         0.9 %
  fmf_dgemm                  :   0.648031E+01  0.360017E-01         4.4 %
  mmm_dgemm                  :   0.574691E-02  0.319273E-04         0.0 %
  m_diagonalize              :   0.344593E-02  0.191441E-04         0.0 %
  exchange correlation       :   0.450582E+02  0.250324E+00        30.5 %
  local pseudopotentials     :   0.105100E-02  0.583889E-05         0.0 %
  non-local pseudopotentials :   0.384726E+01  0.213737E-01         2.6 %
  hartree potentials         :   0.145167E+00  0.806483E-03         0.1 %
  ion-ion interaction        :   0.105000E-01  0.583333E-04         0.0 %
  structure factors          :   0.299928E-01  0.166627E-03         0.0 %
  phase factors              :   0.299900E-05  0.166611E-07         0.0 %
  masking and packing        :   0.593951E+01  0.329973E-01         4.0 %
  queue fft                  :   0.534369E+02  0.296872E+00        36.2 %
  queue fft (serial)         :   0.209767E+02  0.116537E+00        14.2 %
  queue fft (message passing):   0.309451E+02  0.171917E+00        21.0 %
  non-local psp FFM          :   0.188229E+01  0.104572E-01         1.3 %
  non-local psp FMF          :   0.164918E+01  0.916212E-02         1.1 %
  non-local psp FFM A        :   0.268500E+00  0.149167E-02         0.2 %
  non-local psp FFM B        :   0.157047E+01  0.872486E-02         1.1 %

     >>>  JOB COMPLETED     AT Mon Apr 24 20:41:26 2023  <<<

 Task  times  cpu:     1025.0s     wall:     1025.0s


                                NWChem Input Module
                                -------------------


 Summary of allocated global arrays
-----------------------------------
  No active global arrays


MA_summarize_allocated_blocks: starting scan ...
MA_summarize_allocated_blocks: scan completed: 0 heap blocks, 0 stack blocks
MA usage statistics:

	allocation statistics:
					      heap	     stack
					      ----	     -----
	current number of blocks	         0	         0
	maximum number of blocks	       277	        21
	current total bytes		         0	         0
	maximum total bytes		 587247120	 140347944
	maximum total K-bytes		    587248	    140348
	maximum total M-bytes		       588	       141


                                     CITATION
                                     --------
                Please cite the following reference when publishing
                           results obtained with NWChem:

          E. Apra, E. J. Bylaska, W. A. de Jong, N. Govind, K. Kowalski,
       T. P. Straatsma, M. Valiev, H. J. J. van Dam, Y. Alexeev, J. Anchell,
       V. Anisimov, F. W. Aquino, R. Atta-Fynn, J. Autschbach, N. P. Bauman,
     J. C. Becca, D. E. Bernholdt, K. Bhaskaran-Nair, S. Bogatko, P. Borowski,
         J. Boschen, J. Brabec, A. Bruner, E. Cauet, Y. Chen, G. N. Chuev,
      C. J. Cramer, J. Daily, M. J. O. Deegan, T. H. Dunning Jr., M. Dupuis,
   K. G. Dyall, G. I. Fann, S. A. Fischer, A. Fonari, H. Fruchtl, L. Gagliardi,
      J. Garza, N. Gawande, S. Ghosh, K. Glaesemann, A. W. Gotz, J. Hammond,
       V. Helms, E. D. Hermes, K. Hirao, S. Hirata, M. Jacquelin, L. Jensen,
   B. G. Johnson, H. Jonsson, R. A. Kendall, M. Klemm, R. Kobayashi, V. Konkov,
      S. Krishnamoorthy, M. Krishnan, Z. Lin, R. D. Lins, R. J. Littlefield,
      A. J. Logsdail, K. Lopata, W. Ma, A. V. Marenich, J. Martin del Campo,
   D. Mejia-Rodriguez, J. E. Moore, J. M. Mullin, T. Nakajima, D. R. Nascimento,
    J. A. Nichols, P. J. Nichols, J. Nieplocha, A. Otero-de-la-Roza, B. Palmer,
    A. Panyala, T. Pirojsirikul, B. Peng, R. Peverati, J. Pittner, L. Pollack,
   R. M. Richard, P. Sadayappan, G. C. Schatz, W. A. Shelton, D. W. Silverstein,
   D. M. A. Smith, T. A. Soares, D. Song, M. Swart, H. L. Taylor, G. S. Thomas,
            V. Tipparaju, D. G. Truhlar, K. Tsemekhman, T. Van Voorhis,
      A. Vazquez-Mayagoitia, P. Verma, O. Villa, A. Vishnu, K. D. Vogiatzis,
        D. Wang, J. H. Weare, M. J. Williamson, T. L. Windus, K. Wolinski,
        A. T. Wong, Q. Wu, C. Yang, Q. Yu, M. Zacharias, Z. Zhang, Y. Zhao,
                                and R. J. Harrison
                        "NWChem: Past, present, and future
                         J. Chem. Phys. 152, 184102 (2020)
                               doi:10.1063/5.0004997

                                      AUTHORS
                                      -------
  E. Apra, E. J. Bylaska, N. Govind, K. Kowalski, M. Valiev, D. Mejia-Rodriguez,
       A. Kunitsa, N. P. Bauman, A. Panyala, W. A. de Jong, T. P. Straatsma,
   H. J. J. van Dam, D. Wang, T. L. Windus, J. Hammond, J. Autschbach, A. Woods,
    K. Bhaskaran-Nair, J. Brabec, K. Lopata, S. A. Fischer, S. Krishnamoorthy,
     M. Jacquelin, W. Ma, M. Klemm, O. Villa, Y. Chen, V. Anisimov, F. Aquino,
     S. Hirata, M. T. Hackler, E. Hermes, L. Jensen, J. E. Moore, J. C. Becca,
      V. Konjkov, T. Risthaus, M. Malagoli, A. Marenich, A. Otero-de-la-Roza,
        J. Mullin, P. Nichols, R. Peverati, J. Pittner, Y. Zhao, P.-D. Fan,
        A. Fonari, M. J. Williamson, R. J. Harrison, J. R. Rehr, M. Dupuis,
     D. Silverstein, D. M. A. Smith, J. Nieplocha, V. Tipparaju, M. Krishnan,
     B. E. Van Kuiken, A. Vazquez-Mayagoitia, M. Swart, Q. Wu, T. Van Voorhis,
     A. A. Auer, M. Nooijen, L. D. Crosby, E. Brown, G. Cisneros, G. I. Fann,
   H. Fruchtl, J. Garza, K. Hirao, R. A. Kendall, J. A. Nichols, K. Tsemekhman,
    K. Wolinski, J. Anchell, D. E. Bernholdt, P. Borowski, T. Clark, D. Clerc,
   H. Dachsel, M. J. O. Deegan, K. Dyall, D. Elwood, E. Glendening, M. Gutowski,
   A. C. Hess, J. Jaffe, B. G. Johnson, J. Ju, R. Kobayashi, R. Kutteh, Z. Lin,
   R. Littlefield, X. Long, B. Meng, T. Nakajima, S. Niu, L. Pollack, M. Rosing,
   K. Glaesemann, G. Sandrone, M. Stave, H. Taylor, G. Thomas, J. H. van Lenthe,
                               A. T. Wong, Z. Zhang.

 Total times  cpu:     1025.1s     wall:     1025.1s
