 argument  1 = lu-goethite13.nw
                                         
                                         


             Northwest Computational Chemistry Package (NWChem) 7.2.0
             --------------------------------------------------------


                    Environmental Molecular Sciences Laboratory
                       Pacific Northwest National Laboratory
                                Richland, WA 99352

                              Copyright (c) 1994-2022
                       Pacific Northwest National Laboratory
                            Battelle Memorial Institute

             NWChem is an open-source computational chemistry package
                        distributed under the terms of the
                      Educational Community License (ECL) 2.0
             A copy of the license is included with this distribution
                              in the LICENSE.TXT file

                                  ACKNOWLEDGMENT
                                  --------------

            This software and its documentation were developed at the
            EMSL at Pacific Northwest National Laboratory, a multiprogram
            national laboratory, operated for the U.S. Department of Energy
            by Battelle under Contract Number DE-AC05-76RL01830. Support
            for this work was provided by the Department of Energy Office
            of Biological and Environmental Research, Office of Basic
            Energy Sciences, and the Office of Advanced Scientific Computing.


           Job information
           ---------------

    hostname        = Erics-MacBook-Pro.local
    program         = nwchem
    date            = Tue Jan 24 08:00:33 2023

    compiled        = Tue_Jan_24_07:59:56_2023
    source          = /Users/bylaska/nwchem-releases/nwchem
    nwchem branch   = 7.2.0
    nwchem revision = v7.2.0-beta1-283-g53aa88819d
    ga revision     = 5.8.0
    use scalapack   = F
    input           = lu-goethite13.nw
    prefix          = goethite_Lu82.
    data base       = ./perm/goethite_Lu82.db
    status          = startup
    nproc           =        8
    time left       =     -1s



           Memory information
           ------------------

    heap     =   78643196 doubles =    600.0 Mbytes
    stack    =   78643201 doubles =    600.0 Mbytes
    global   =    1310720 doubles =     10.0 Mbytes (distinct from heap & stack)
    total    =  158597117 doubles =   1210.0 Mbytes
    verify   = yes
    hardfail = no 


           Directory information
           ---------------------

  0 permanent = ./perm
  0 scratch   = ./perm




                                NWChem Input Module
                                -------------------


                     goethite replace Fe82 with Lu and PAW psp
                     -----------------------------------------

  !!!!!!!!!  geom_3d NEEDS TESTING !!!!!!!!!! 


                             Geometry "geometry" -> ""
                             -------------------------

 Output coordinates in angstroms (scale by  1.889725989 to convert to a.u.)

  No.       Tag          Charge          X              Y              Z
 ---- ---------------- ---------- -------------- -------------- --------------
    1 Fe                  26.0000     1.47713722     6.86640000     2.06867670
    2 Fe                  26.0000     3.55530677     8.39232465     8.97054596
    3 Fe                  26.0000     8.58865677     8.39232465     7.13662904
    4 Fe                  26.0000     6.51048722     6.86640000     0.23234830
    5 H                    1.0000     9.20880576     6.86640000     0.45223425
    6 H                    1.0000     5.89166704     8.39504374     7.35314629
    7 H                    1.0000     0.85831704     8.39504374     8.75402871
    8 H                    1.0000     4.17545576     6.86640000     1.84879075
    9 O                    8.0000     8.08609691     6.86640000     8.32717017
   10 O                    8.0000     7.01452689     8.39278241     1.42294466
   11 O                    8.0000     1.98117689     8.39278241     0.87808034
   12 O                    8.0000     3.05274691     6.86640000     7.78000483
   13 O                    8.0000     9.52917849     6.86640000     1.37043527
   14 O                    8.0000     5.57097218     8.39574869     8.27121844
   15 O                    8.0000     0.53762218     8.39573954     7.83595656
   16 O                    8.0000     4.49582849     6.86640000     0.93058973
   17 Fe                  26.0000     1.47804323     0.76287535     2.06747096
   18 Fe                  26.0000     3.55621278     2.28880000     8.97175170
   19 Fe                  26.0000     8.58956278     2.28880000     7.13542330
   20 Fe                  26.0000     6.51139323     0.76287535     0.23355404
   21 H                    1.0000     9.20838296     0.76015626     0.45007129
   22 H                    1.0000     5.89124424     2.28880000     7.35530925
   23 H                    1.0000     0.85789424     2.28880000     8.75186575
   24 H                    1.0000     4.17503296     0.76015626     1.85095371
   25 O                    8.0000     8.08552311     0.76241759     8.32601966
   26 O                    8.0000     7.01395309     2.28880000     1.42409517
   27 O                    8.0000     1.98060309     2.28880000     0.87692983
   28 O                    8.0000     3.05217311     0.76241759     7.78115534
   29 O                    8.0000     9.52907782     0.75946046     1.36814344
   30 O                    8.0000     5.57087151     2.28880000     8.27351027
   31 O                    8.0000     0.53752151     2.28880000     7.83366473
   32 O                    8.0000     4.49572782     0.75945131     0.93288156
   33 Fe                  26.0000     1.47804323     3.81472465     2.06747096
   34 Fe                  26.0000     3.55530677     5.34047535     8.97054596
   35 Fe                  26.0000     8.58865677     5.34047535     7.13662904
   36 Fe                  26.0000     6.51139323     3.81472465     0.23355404
   37 H                    1.0000     9.20838296     3.81744374     0.45007129
   38 H                    1.0000     5.89166704     5.33775626     7.35314629
   39 H                    1.0000     0.85831704     5.33775626     8.75402871
   40 H                    1.0000     4.17503296     3.81744374     1.85095371
   41 O                    8.0000     8.08552311     3.81518241     8.32601966
   42 O                    8.0000     7.01452689     5.34001759     1.42294466
   43 O                    8.0000     1.98117689     5.34001759     0.87808034
   44 O                    8.0000     3.05217311     3.81518241     7.78115534
   45 O                    8.0000     9.52907782     3.81814869     1.36814344
   46 O                    8.0000     5.57097218     5.33705131     8.27121844
   47 O                    8.0000     0.53762218     5.33705131     7.83595656
   48 O                    8.0000     4.49572782     3.81813954     0.93288156
   49 Fe                  26.0000     1.47713722     6.86640000     6.67072670
   50 Fe                  26.0000     3.55530677     8.39232465     4.36849596
   51 Fe                  26.0000     8.58865677     8.39232465     2.53457904
   52 Fe                  26.0000     6.51048722     6.86640000     4.83439830
   53 H                    1.0000     9.20880576     6.86640000     5.05428425
   54 H                    1.0000     5.89166704     8.39504374     2.75109629
   55 H                    1.0000     0.85831704     8.39504374     4.15197871
   56 H                    1.0000     4.17545576     6.86640000     6.45084075
   57 O                    8.0000     8.08609691     6.86640000     3.72512017
   58 O                    8.0000     7.01452689     8.39278241     6.02499466
   59 O                    8.0000     1.98117689     8.39278241     5.48013034
   60 O                    8.0000     3.05274691     6.86640000     3.17795483
   61 O                    8.0000     9.52917849     6.86640000     5.97248527
   62 O                    8.0000     5.57097218     8.39574869     3.66916844
   63 O                    8.0000     0.53762218     8.39573954     3.23390656
   64 O                    8.0000     4.49582849     6.86640000     5.53263973
   65 Fe                  26.0000     1.47804323     0.76287535     6.66952096
   66 Fe                  26.0000     3.55621278     2.28880000     4.36970170
   67 Fe                  26.0000     8.58956278     2.28880000     2.53337330
   68 Fe                  26.0000     6.51139323     0.76287535     4.83560404
   69 H                    1.0000     9.20838296     0.76015626     5.05212129
   70 H                    1.0000     5.89124424     2.28880000     2.75325925
   71 H                    1.0000     0.85789424     2.28880000     4.14981575
   72 H                    1.0000     4.17503296     0.76015626     6.45300371
   73 O                    8.0000     8.08552311     0.76241759     3.72396966
   74 O                    8.0000     7.01395309     2.28880000     6.02614517
   75 O                    8.0000     1.98060309     2.28880000     5.47897983
   76 O                    8.0000     3.05217311     0.76241759     3.17910534
   77 O                    8.0000     9.52907782     0.75946046     5.97019344
   78 O                    8.0000     5.57087151     2.28880000     3.67146027
   79 O                    8.0000     0.53752151     2.28880000     3.23161473
   80 O                    8.0000     4.49572782     0.75945131     5.53493156
   81 Fe                  26.0000     1.47804323     3.81472465     6.66952096
   82 Lu                  71.0000     3.55530677     5.34047535     4.36849596
   83 Fe                  26.0000     8.58865677     5.34047535     2.53457904
   84 Fe                  26.0000     6.51139323     3.81472465     4.83560404
   85 H                    1.0000     9.20838296     3.81744374     5.05212129
   86 H                    1.0000     5.89166704     5.33775626     2.75109629
   87 H                    1.0000     0.85831704     5.33775626     4.15197871
   88 H                    1.0000     4.17503296     3.81744374     6.45300371
   89 O                    8.0000     8.08552311     3.81518241     3.72396966
   90 O                    8.0000     7.01452689     5.34001759     6.02499466
   91 O                    8.0000     1.98117689     5.34001759     5.48013034
   92 O                    8.0000     3.05217311     3.81518241     3.17910534
   93 O                    8.0000     9.52907782     3.81814869     5.97019344
   94 O                    8.0000     5.57097218     5.33705131     3.66916844
   95 O                    8.0000     0.53762218     5.33705131     3.23390656
   96 O                    8.0000     4.49572782     3.81813954     5.53493156

      Lattice Parameters 
      ------------------ 

      lattice vectors in angstroms (scale by  1.889725989 to convert to a.u.)

      a1=<  10.067   0.000   0.000 >
      a2=<   0.000   9.155   0.000 >
      a3=<   0.000   0.000   9.204 >
      a=      10.067 b=      9.155 c=       9.204
      alpha=  90.000 beta=  90.000 gamma=  90.000
      omega=   848.3

      reciprocal lattice vectors in a.u.

      b1=<   0.330   0.000  -0.000 >
      b2=<  -0.000   0.363  -0.000 >
      b3=<   0.000   0.000   0.361 >

      Atomic Mass 
      ----------- 

      Fe                55.934900
      H                  1.007825
      O                 15.994910
      Lu               174.940900



            XYZ format geometry
            -------------------
    96
 geometry
 Fe                    1.47713722     6.86640000     2.06867670
 Fe                    3.55530677     8.39232465     8.97054596
 Fe                    8.58865677     8.39232465     7.13662904
 Fe                    6.51048722     6.86640000     0.23234830
 H                     9.20880576     6.86640000     0.45223425
 H                     5.89166704     8.39504374     7.35314629
 H                     0.85831704     8.39504374     8.75402871
 H                     4.17545576     6.86640000     1.84879075
 O                     8.08609691     6.86640000     8.32717017
 O                     7.01452689     8.39278241     1.42294466
 O                     1.98117689     8.39278241     0.87808034
 O                     3.05274691     6.86640000     7.78000483
 O                     9.52917849     6.86640000     1.37043527
 O                     5.57097218     8.39574869     8.27121844
 O                     0.53762218     8.39573954     7.83595656
 O                     4.49582849     6.86640000     0.93058973
 Fe                    1.47804323     0.76287535     2.06747096
 Fe                    3.55621278     2.28880000     8.97175170
 Fe                    8.58956278     2.28880000     7.13542330
 Fe                    6.51139323     0.76287535     0.23355404
 H                     9.20838296     0.76015626     0.45007129
 H                     5.89124424     2.28880000     7.35530925
 H                     0.85789424     2.28880000     8.75186575
 H                     4.17503296     0.76015626     1.85095371
 O                     8.08552311     0.76241759     8.32601966
 O                     7.01395309     2.28880000     1.42409517
 O                     1.98060309     2.28880000     0.87692983
 O                     3.05217311     0.76241759     7.78115534
 O                     9.52907782     0.75946046     1.36814344
 O                     5.57087151     2.28880000     8.27351027
 O                     0.53752151     2.28880000     7.83366473
 O                     4.49572782     0.75945131     0.93288156
 Fe                    1.47804323     3.81472465     2.06747096
 Fe                    3.55530677     5.34047535     8.97054596
 Fe                    8.58865677     5.34047535     7.13662904
 Fe                    6.51139323     3.81472465     0.23355404
 H                     9.20838296     3.81744374     0.45007129
 H                     5.89166704     5.33775626     7.35314629
 H                     0.85831704     5.33775626     8.75402871
 H                     4.17503296     3.81744374     1.85095371
 O                     8.08552311     3.81518241     8.32601966
 O                     7.01452689     5.34001759     1.42294466
 O                     1.98117689     5.34001759     0.87808034
 O                     3.05217311     3.81518241     7.78115534
 O                     9.52907782     3.81814869     1.36814344
 O                     5.57097218     5.33705131     8.27121844
 O                     0.53762218     5.33705131     7.83595656
 O                     4.49572782     3.81813954     0.93288156
 Fe                    1.47713722     6.86640000     6.67072670
 Fe                    3.55530677     8.39232465     4.36849596
 Fe                    8.58865677     8.39232465     2.53457904
 Fe                    6.51048722     6.86640000     4.83439830
 H                     9.20880576     6.86640000     5.05428425
 H                     5.89166704     8.39504374     2.75109629
 H                     0.85831704     8.39504374     4.15197871
 H                     4.17545576     6.86640000     6.45084075
 O                     8.08609691     6.86640000     3.72512017
 O                     7.01452689     8.39278241     6.02499466
 O                     1.98117689     8.39278241     5.48013034
 O                     3.05274691     6.86640000     3.17795483
 O                     9.52917849     6.86640000     5.97248527
 O                     5.57097218     8.39574869     3.66916844
 O                     0.53762218     8.39573954     3.23390656
 O                     4.49582849     6.86640000     5.53263973
 Fe                    1.47804323     0.76287535     6.66952096
 Fe                    3.55621278     2.28880000     4.36970170
 Fe                    8.58956278     2.28880000     2.53337330
 Fe                    6.51139323     0.76287535     4.83560404
 H                     9.20838296     0.76015626     5.05212129
 H                     5.89124424     2.28880000     2.75325925
 H                     0.85789424     2.28880000     4.14981575
 H                     4.17503296     0.76015626     6.45300371
 O                     8.08552311     0.76241759     3.72396966
 O                     7.01395309     2.28880000     6.02614517
 O                     1.98060309     2.28880000     5.47897983
 O                     3.05217311     0.76241759     3.17910534
 O                     9.52907782     0.75946046     5.97019344
 O                     5.57087151     2.28880000     3.67146027
 O                     0.53752151     2.28880000     3.23161473
 O                     4.49572782     0.75945131     5.53493156
 Fe                    1.47804323     3.81472465     6.66952096
 Lu                    3.55530677     5.34047535     4.36849596
 Fe                    8.58865677     5.34047535     2.53457904
 Fe                    6.51139323     3.81472465     4.83560404
 H                     9.20838296     3.81744374     5.05212129
 H                     5.89166704     5.33775626     2.75109629
 H                     0.85831704     5.33775626     4.15197871
 H                     4.17503296     3.81744374     6.45300371
 O                     8.08552311     3.81518241     3.72396966
 O                     7.01452689     5.34001759     6.02499466
 O                     1.98117689     5.34001759     5.48013034
 O                     3.05217311     3.81518241     3.17910534
 O                     9.52907782     3.81814869     5.97019344
 O                     5.57097218     5.33705131     3.66916844
 O                     0.53762218     5.33705131     3.23390656
 O                     4.49572782     3.81813954     5.53493156

 ==============================================================================
                                internuclear distances
 ------------------------------------------------------------------------------
       center one      |      center two      | atomic units |  angstroms
 ------------------------------------------------------------------------------
    9 O                |   3 Fe               |     3.77870  |     1.99960
   10 O                |   4 Fe               |     3.78012  |     2.00035
   11 O                |   1 Fe               |     3.78012  |     2.00035
   12 O                |   2 Fe               |     3.77870  |     1.99960
   13 O                |   5 H                |     1.83773  |     0.97249
   14 O                |   2 Fe               |     4.03180  |     2.13354
   14 O                |   6 H                |     1.83771  |     0.97247
   15 O                |   7 H                |     1.83771  |     0.97247
   16 O                |   4 Fe               |     4.02932  |     2.13223
   16 O                |   8 H                |     1.83773  |     0.97249
   25 O                |  19 Fe               |     3.78012  |     2.00035
   26 O                |  20 Fe               |     3.77870  |     1.99960
   27 O                |  17 Fe               |     3.77870  |     1.99960
   28 O                |  18 Fe               |     3.78012  |     2.00035
   29 O                |  21 H                |     1.83771  |     0.97247
   30 O                |  18 Fe               |     4.02932  |     2.13223
   30 O                |  22 H                |     1.83773  |     0.97249
   31 O                |  23 H                |     1.83773  |     0.97249
   32 O                |  20 Fe               |     4.03180  |     2.13354
   32 O                |  24 H                |     1.83771  |     0.97247
   33 Fe               |  27 O                |     3.77870  |     1.99960
   34 Fe               |  12 O                |     3.77870  |     1.99960
   35 Fe               |   9 O                |     3.77870  |     1.99960
   36 Fe               |  26 O                |     3.77870  |     1.99960
   41 O                |  19 Fe               |     3.78012  |     2.00035
   41 O                |  35 Fe               |     3.77676  |     1.99858
   42 O                |   4 Fe               |     3.78012  |     2.00035
   42 O                |  36 Fe               |     3.77676  |     1.99858
   43 O                |   1 Fe               |     3.78012  |     2.00035
   43 O                |  33 Fe               |     3.77676  |     1.99858
   44 O                |  18 Fe               |     3.78012  |     2.00035
   44 O                |  34 Fe               |     3.77676  |     1.99858
   45 O                |  37 H                |     1.83771  |     0.97247
   46 O                |  34 Fe               |     4.03180  |     2.13354
   46 O                |  38 H                |     1.83771  |     0.97247
   47 O                |  39 H                |     1.83771  |     0.97247
   48 O                |  36 Fe               |     4.03180  |     2.13354
   48 O                |  40 H                |     1.83771  |     0.97247
   49 Fe               |  12 O                |     3.64136  |     1.92693
   49 Fe               |  15 O                |     4.04389  |     2.13994
   49 Fe               |  47 O                |     4.04391  |     2.13994
   51 Fe               |  10 O                |     3.64164  |     1.92707
   51 Fe               |  13 O                |     4.03900  |     2.13735
   57 O                |  51 Fe               |     3.77870  |     1.99960
   57 O                |  52 Fe               |     3.64136  |     1.92693
   58 O                |   3 Fe               |     3.64164  |     1.92707
   58 O                |  52 Fe               |     3.78012  |     2.00035
   59 O                |  49 Fe               |     3.78012  |     2.00035
   59 O                |  50 Fe               |     3.64164  |     1.92707
   60 O                |   1 Fe               |     3.64136  |     1.92693
   60 O                |  50 Fe               |     3.77870  |     1.99960
   61 O                |   3 Fe               |     4.03900  |     2.13735
   61 O                |  35 Fe               |     4.03900  |     2.13735
   61 O                |  53 H                |     1.83773  |     0.97249
   62 O                |  50 Fe               |     4.03180  |     2.13354
   62 O                |  52 Fe               |     4.04391  |     2.13994
   62 O                |  54 H                |     1.83771  |     0.97247
   63 O                |   1 Fe               |     4.04389  |     2.13994
   63 O                |  55 H                |     1.83771  |     0.97247
   64 O                |  50 Fe               |     4.03900  |     2.13735
   64 O                |  52 Fe               |     4.02932  |     2.13223
   64 O                |  56 H                |     1.83773  |     0.97249
   65 Fe               |  28 O                |     3.64164  |     1.92707
   65 Fe               |  31 O                |     4.03900  |     2.13735
   67 Fe               |  26 O                |     3.64136  |     1.92693
   67 Fe               |  29 O                |     4.04389  |     2.13994
   67 Fe               |  45 O                |     4.04391  |     2.13994
   73 O                |  67 Fe               |     3.78012  |     2.00035
   73 O                |  68 Fe               |     3.64164  |     1.92707
   74 O                |  19 Fe               |     3.64136  |     1.92693
   74 O                |  68 Fe               |     3.77870  |     1.99960
   75 O                |  65 Fe               |     3.77870  |     1.99960
   75 O                |  66 Fe               |     3.64136  |     1.92693
   76 O                |  17 Fe               |     3.64164  |     1.92707
   76 O                |  66 Fe               |     3.78012  |     2.00035
   77 O                |  19 Fe               |     4.04389  |     2.13994
   77 O                |  69 H                |     1.83771  |     0.97247
   78 O                |  66 Fe               |     4.02932  |     2.13223
   78 O                |  68 Fe               |     4.03900  |     2.13735
   78 O                |  70 H                |     1.83773  |     0.97249
   79 O                |  17 Fe               |     4.03900  |     2.13735
   79 O                |  33 Fe               |     4.03900  |     2.13735
   79 O                |  71 H                |     1.83773  |     0.97249
   80 O                |  66 Fe               |     4.04391  |     2.13994
   80 O                |  68 Fe               |     4.03180  |     2.13354
   80 O                |  72 H                |     1.83771  |     0.97247
   81 Fe               |  31 O                |     4.03900  |     2.13735
   81 Fe               |  44 O                |     3.64164  |     1.92707
   81 Fe               |  47 O                |     4.03643  |     2.13599
   81 Fe               |  75 O                |     3.77870  |     1.99960
   82 Lu               |   1 Fe               |     6.52883  |     3.45491
   82 Lu               |  33 Fe               |     6.52918  |     3.45509
   82 Lu               |  49 Fe               |     6.53187  |     3.45652
   82 Lu               |  50 Fe               |     5.76716  |     3.05185
   82 Lu               |  52 Fe               |     6.34639  |     3.35836
   82 Lu               |  60 O                |     3.77870  |     1.99960
   82 Lu               |  64 O                |     4.03900  |     2.13735
   82 Lu               |  66 Fe               |     5.76683  |     3.05168
   82 Lu               |  81 Fe               |     6.52918  |     3.45509
   83 Fe               |  13 O                |     4.03900  |     2.13735
   83 Fe               |  42 O                |     3.64164  |     1.92707
   83 Fe               |  45 O                |     4.03643  |     2.13599
   83 Fe               |  57 O                |     3.77870  |     1.99960
   84 Fe               |  74 O                |     3.77870  |     1.99960
   84 Fe               |  78 O                |     4.03900  |     2.13735
   84 Fe               |  82 Lu               |     6.34806  |     3.35925
   89 O                |  67 Fe               |     3.78012  |     2.00035
   89 O                |  83 Fe               |     3.77676  |     1.99858
   89 O                |  84 Fe               |     3.64164  |     1.92707
   90 O                |  35 Fe               |     3.64164  |     1.92707
   90 O                |  52 Fe               |     3.78012  |     2.00035
   90 O                |  84 Fe               |     3.77676  |     1.99858
   91 O                |  49 Fe               |     3.78012  |     2.00035
   91 O                |  81 Fe               |     3.77676  |     1.99858
   91 O                |  82 Lu               |     3.64164  |     1.92707
   92 O                |  33 Fe               |     3.64164  |     1.92707
   92 O                |  66 Fe               |     3.78012  |     2.00035
   92 O                |  82 Lu               |     3.77676  |     1.99858
   93 O                |  19 Fe               |     4.04391  |     2.13994
   93 O                |  35 Fe               |     4.03643  |     2.13599
   93 O                |  85 H                |     1.83771  |     0.97247
   94 O                |  52 Fe               |     4.04391  |     2.13994
   94 O                |  82 Lu               |     4.03180  |     2.13354
   94 O                |  84 Fe               |     4.03643  |     2.13599
   94 O                |  86 H                |     1.83771  |     0.97247
   95 O                |   1 Fe               |     4.04391  |     2.13994
   95 O                |  33 Fe               |     4.03643  |     2.13599
   95 O                |  87 H                |     1.83771  |     0.97247
   96 O                |  66 Fe               |     4.04389  |     2.13994
   96 O                |  82 Lu               |     4.03644  |     2.13599
   96 O                |  84 Fe               |     4.03180  |     2.13354
   96 O                |  88 H                |     1.83771  |     0.97247
 ------------------------------------------------------------------------------
                         number of included internuclear distances:        132
 ==============================================================================



 ==============================================================================
                                 internuclear angles
 ------------------------------------------------------------------------------
        center 1       |       center 2       |       center 3       |  degrees
 ------------------------------------------------------------------------------
   11 O                |   1 Fe               |  43 O                |    99.47
   11 O                |   1 Fe               |  60 O                |    97.85
   11 O                |   1 Fe               |  63 O                |    83.65
   11 O                |   1 Fe               |  82 Lu               |   125.57
   11 O                |   1 Fe               |  95 O                |   168.54
   43 O                |   1 Fe               |  60 O                |    97.85
   43 O                |   1 Fe               |  63 O                |   168.54
   43 O                |   1 Fe               |  82 Lu               |    84.70
   43 O                |   1 Fe               |  95 O                |    83.65
   60 O                |   1 Fe               |  63 O                |    92.61
    1 Fe               |  60 O                |  82 Lu               |   123.25
   60 O                |   1 Fe               |  95 O                |    92.61
   63 O                |   1 Fe               |  82 Lu               |   102.55
   63 O                |   1 Fe               |  95 O                |    91.23
   82 Lu               |   1 Fe               |  95 O                |    65.54
   12 O                |   2 Fe               |  14 O                |    92.49
    9 O                |   3 Fe               |  58 O                |    97.95
    9 O                |   3 Fe               |  61 O                |    83.69
   58 O                |   3 Fe               |  61 O                |    92.60
   10 O                |   4 Fe               |  16 O                |    92.47
   10 O                |   4 Fe               |  42 O                |    99.47
   16 O                |   4 Fe               |  42 O                |    92.47
    3 Fe               |   9 O                |  35 Fe               |    99.48
    4 Fe               |  10 O                |  51 Fe               |   123.30
    2 Fe               |  12 O                |  34 Fe               |    99.48
    2 Fe               |  12 O                |  49 Fe               |   123.25
   34 Fe               |  12 O                |  49 Fe               |   123.25
    5 H                |  13 O                |  51 Fe               |   111.67
    5 H                |  13 O                |  83 Fe               |   111.67
   51 Fe               |  13 O                |  83 Fe               |    91.11
    2 Fe               |  14 O                |   6 H                |   128.39
    7 H                |  15 O                |  49 Fe               |   111.64
    4 Fe               |  16 O                |   8 H                |   128.35
   27 O                |  17 Fe               |  76 O                |    97.95
   27 O                |  17 Fe               |  79 O                |    83.69
   76 O                |  17 Fe               |  79 O                |    92.60
   28 O                |  18 Fe               |  30 O                |    92.47
   28 O                |  18 Fe               |  44 O                |    99.47
   30 O                |  18 Fe               |  44 O                |    92.47
   25 O                |  19 Fe               |  41 O                |    99.47
   25 O                |  19 Fe               |  74 O                |    97.85
   25 O                |  19 Fe               |  77 O                |    83.65
   25 O                |  19 Fe               |  93 O                |   168.54
   41 O                |  19 Fe               |  74 O                |    97.85
   41 O                |  19 Fe               |  77 O                |   168.54
   41 O                |  19 Fe               |  93 O                |    83.65
   74 O                |  19 Fe               |  77 O                |    92.61
   74 O                |  19 Fe               |  93 O                |    92.61
   77 O                |  19 Fe               |  93 O                |    91.23
   26 O                |  20 Fe               |  32 O                |    92.49
   20 Fe               |  26 O                |  36 Fe               |    99.48
   20 Fe               |  26 O                |  67 Fe               |   123.25
   36 Fe               |  26 O                |  67 Fe               |   123.25
   17 Fe               |  27 O                |  33 Fe               |    99.48
   18 Fe               |  28 O                |  65 Fe               |   123.30
   21 H                |  29 O                |  67 Fe               |   111.64
   18 Fe               |  30 O                |  22 H                |   128.35
   23 H                |  31 O                |  65 Fe               |   111.67
   23 H                |  31 O                |  81 Fe               |   111.67
   65 Fe               |  31 O                |  81 Fe               |    91.11
   20 Fe               |  32 O                |  24 H                |   128.39
   27 O                |  33 Fe               |  43 O                |    99.49
   27 O                |  33 Fe               |  79 O                |    83.69
   27 O                |  33 Fe               |  82 Lu               |   125.62
   27 O                |  33 Fe               |  92 O                |    97.95
   27 O                |  33 Fe               |  95 O                |   168.43
   43 O                |  33 Fe               |  79 O                |   168.46
   43 O                |  33 Fe               |  82 Lu               |    84.72
   43 O                |  33 Fe               |  92 O                |    97.90
   43 O                |  33 Fe               |  95 O                |    83.79
   79 O                |  33 Fe               |  82 Lu               |   102.54
   79 O                |  33 Fe               |  92 O                |    92.60
   79 O                |  33 Fe               |  95 O                |    91.01
   33 Fe               |  92 O                |  82 Lu               |   123.31
   82 Lu               |  33 Fe               |  95 O                |    65.56
   92 O                |  33 Fe               |  95 O                |    92.55
   12 O                |  34 Fe               |  44 O                |    99.49
   12 O                |  34 Fe               |  46 O                |    92.49
   44 O                |  34 Fe               |  46 O                |    92.38
    9 O                |  35 Fe               |  41 O                |    99.49
    9 O                |  35 Fe               |  61 O                |    83.69
    9 O                |  35 Fe               |  90 O                |    97.95
    9 O                |  35 Fe               |  93 O                |   168.43
   41 O                |  35 Fe               |  61 O                |   168.46
   41 O                |  35 Fe               |  90 O                |    97.90
   41 O                |  35 Fe               |  93 O                |    83.79
   61 O                |  35 Fe               |  90 O                |    92.60
   61 O                |  35 Fe               |  93 O                |    91.01
   90 O                |  35 Fe               |  93 O                |    92.55
   26 O                |  36 Fe               |  42 O                |    99.49
   26 O                |  36 Fe               |  48 O                |    92.49
   42 O                |  36 Fe               |  48 O                |    92.38
   19 Fe               |  41 O                |  35 Fe               |    99.48
    4 Fe               |  42 O                |  36 Fe               |    99.48
    4 Fe               |  42 O                |  83 Fe               |   123.30
   36 Fe               |  42 O                |  83 Fe               |   123.31
    1 Fe               |  43 O                |  33 Fe               |    99.48
   18 Fe               |  44 O                |  34 Fe               |    99.48
   18 Fe               |  44 O                |  81 Fe               |   123.30
   34 Fe               |  44 O                |  81 Fe               |   123.31
   37 H                |  45 O                |  67 Fe               |   111.64
   37 H                |  45 O                |  83 Fe               |   111.77
   67 Fe               |  45 O                |  83 Fe               |    91.07
   34 Fe               |  46 O                |  38 H                |   128.39
   39 H                |  47 O                |  49 Fe               |   111.64
   39 H                |  47 O                |  81 Fe               |   111.77
   49 Fe               |  47 O                |  81 Fe               |    91.07
   36 Fe               |  48 O                |  40 H                |   128.39
   12 O                |  49 Fe               |  15 O                |    92.61
   12 O                |  49 Fe               |  47 O                |    92.61
   12 O                |  49 Fe               |  59 O                |    97.85
   12 O                |  49 Fe               |  82 Lu               |    83.79
   12 O                |  49 Fe               |  91 O                |    97.85
   15 O                |  49 Fe               |  47 O                |    91.23
   15 O                |  49 Fe               |  59 O                |    83.65
   15 O                |  49 Fe               |  82 Lu               |   160.41
   15 O                |  49 Fe               |  91 O                |   168.54
   47 O                |  49 Fe               |  59 O                |   168.54
   47 O                |  49 Fe               |  82 Lu               |   108.13
   47 O                |  49 Fe               |  91 O                |    83.65
   59 O                |  49 Fe               |  82 Lu               |    77.82
   59 O                |  49 Fe               |  91 O                |    99.47
   49 Fe               |  91 O                |  82 Lu               |   123.30
   59 O                |  50 Fe               |  60 O                |    97.95
   59 O                |  50 Fe               |  62 O                |   163.90
   59 O                |  50 Fe               |  64 O                |    92.60
   59 O                |  50 Fe               |  82 Lu               |    90.01
   60 O                |  50 Fe               |  62 O                |    92.49
   60 O                |  50 Fe               |  64 O                |    83.69
   50 Fe               |  60 O                |  82 Lu               |    99.48
   62 O                |  50 Fe               |  64 O                |    76.35
   62 O                |  50 Fe               |  82 Lu               |    90.09
   50 Fe               |  64 O                |  82 Lu               |    91.11
   10 O                |  51 Fe               |  13 O                |    92.60
   10 O                |  51 Fe               |  57 O                |    97.95
   13 O                |  51 Fe               |  57 O                |    83.69
   57 O                |  52 Fe               |  58 O                |    97.85
   57 O                |  52 Fe               |  62 O                |    92.61
   57 O                |  52 Fe               |  64 O                |   163.97
   57 O                |  52 Fe               |  82 Lu               |   129.77
   57 O                |  52 Fe               |  90 O                |    97.85
   57 O                |  52 Fe               |  94 O                |    92.61
   58 O                |  52 Fe               |  62 O                |    83.65
   58 O                |  52 Fe               |  64 O                |    92.47
   58 O                |  52 Fe               |  82 Lu               |   130.62
   58 O                |  52 Fe               |  90 O                |    99.47
   58 O                |  52 Fe               |  94 O                |   168.54
   62 O                |  52 Fe               |  64 O                |    76.32
   62 O                |  52 Fe               |  82 Lu               |    82.12
   62 O                |  52 Fe               |  90 O                |   168.54
   62 O                |  52 Fe               |  94 O                |    91.23
   52 Fe               |  64 O                |  82 Lu               |   103.73
   64 O                |  52 Fe               |  90 O                |    92.47
   64 O                |  52 Fe               |  94 O                |    76.32
   82 Lu               |  52 Fe               |  90 O                |    87.57
   52 Fe               |  94 O                |  82 Lu               |   103.60
   90 O                |  52 Fe               |  94 O                |    83.65
   51 Fe               |  57 O                |  52 Fe               |   123.25
   51 Fe               |  57 O                |  83 Fe               |    99.48
   52 Fe               |  57 O                |  83 Fe               |   123.25
    3 Fe               |  58 O                |  52 Fe               |   123.30
   49 Fe               |  59 O                |  50 Fe               |   123.30
    1 Fe               |  60 O                |  50 Fe               |   123.25
    1 Fe               |  60 O                |  82 Lu               |   123.25
   50 Fe               |  60 O                |  82 Lu               |    99.48
    3 Fe               |  61 O                |  35 Fe               |    91.11
    3 Fe               |  61 O                |  53 H                |   111.67
   35 Fe               |  61 O                |  53 H                |   111.67
   50 Fe               |  62 O                |  52 Fe               |   103.60
   50 Fe               |  62 O                |  54 H                |   128.39
   52 Fe               |  62 O                |  54 H                |   111.64
    1 Fe               |  63 O                |  55 H                |   111.64
   50 Fe               |  64 O                |  52 Fe               |   103.73
   50 Fe               |  64 O                |  56 H                |   111.67
   50 Fe               |  64 O                |  82 Lu               |    91.11
   52 Fe               |  64 O                |  56 H                |   128.35
   52 Fe               |  64 O                |  82 Lu               |   103.73
   56 H                |  64 O                |  82 Lu               |   111.67
   28 O                |  65 Fe               |  31 O                |    92.60
   28 O                |  65 Fe               |  75 O                |    97.95
   31 O                |  65 Fe               |  75 O                |    83.69
   75 O                |  66 Fe               |  76 O                |    97.85
   75 O                |  66 Fe               |  78 O                |   163.97
   75 O                |  66 Fe               |  80 O                |    92.61
   75 O                |  66 Fe               |  82 Lu               |    90.00
   75 O                |  66 Fe               |  92 O                |    97.85
   75 O                |  66 Fe               |  96 O                |    92.61
   76 O                |  66 Fe               |  78 O                |    92.47
   76 O                |  66 Fe               |  80 O                |    83.65
   76 O                |  66 Fe               |  82 Lu               |   139.71
   76 O                |  66 Fe               |  92 O                |    99.47
   76 O                |  66 Fe               |  96 O                |   168.54
   78 O                |  66 Fe               |  80 O                |    76.32
   78 O                |  66 Fe               |  82 Lu               |    90.01
   78 O                |  66 Fe               |  92 O                |    92.47
   78 O                |  66 Fe               |  96 O                |    76.32
   80 O                |  66 Fe               |  82 Lu               |   135.64
   80 O                |  66 Fe               |  92 O                |   168.54
   80 O                |  66 Fe               |  96 O                |    91.23
   66 Fe               |  92 O                |  82 Lu               |    99.48
   66 Fe               |  96 O                |  82 Lu               |    91.07
   92 O                |  66 Fe               |  96 O                |    83.65
   26 O                |  67 Fe               |  29 O                |    92.61
   26 O                |  67 Fe               |  45 O                |    92.61
   26 O                |  67 Fe               |  73 O                |    97.85
   26 O                |  67 Fe               |  89 O                |    97.85
   29 O                |  67 Fe               |  45 O                |    91.23
   29 O                |  67 Fe               |  73 O                |    83.65
   29 O                |  67 Fe               |  89 O                |   168.54
   45 O                |  67 Fe               |  73 O                |   168.54
   45 O                |  67 Fe               |  89 O                |    83.65
   73 O                |  67 Fe               |  89 O                |    99.47
   73 O                |  68 Fe               |  74 O                |    97.95
   73 O                |  68 Fe               |  78 O                |    92.60
   73 O                |  68 Fe               |  80 O                |   163.90
   74 O                |  68 Fe               |  78 O                |    83.69
   74 O                |  68 Fe               |  80 O                |    92.49
   78 O                |  68 Fe               |  80 O                |    76.35
   67 Fe               |  73 O                |  68 Fe               |   123.30
   19 Fe               |  74 O                |  68 Fe               |   123.25
   19 Fe               |  74 O                |  84 Fe               |   123.25
   68 Fe               |  74 O                |  84 Fe               |    99.48
   65 Fe               |  75 O                |  66 Fe               |   123.25
   65 Fe               |  75 O                |  81 Fe               |    99.48
   66 Fe               |  75 O                |  81 Fe               |   123.25
   17 Fe               |  76 O                |  66 Fe               |   123.30
   19 Fe               |  77 O                |  69 H                |   111.64
   66 Fe               |  78 O                |  68 Fe               |   103.73
   66 Fe               |  78 O                |  70 H                |   128.35
   66 Fe               |  78 O                |  84 Fe               |   103.73
   68 Fe               |  78 O                |  70 H                |   111.67
   68 Fe               |  78 O                |  84 Fe               |    91.11
   70 H                |  78 O                |  84 Fe               |   111.67
   17 Fe               |  79 O                |  33 Fe               |    91.11
   17 Fe               |  79 O                |  71 H                |   111.67
   33 Fe               |  79 O                |  71 H                |   111.67
   66 Fe               |  80 O                |  68 Fe               |   103.60
   66 Fe               |  80 O                |  72 H                |   111.64
   68 Fe               |  80 O                |  72 H                |   128.39
   31 O                |  81 Fe               |  44 O                |    92.60
   31 O                |  81 Fe               |  47 O                |    91.01
   31 O                |  81 Fe               |  75 O                |    83.69
   31 O                |  81 Fe               |  82 Lu               |   160.49
   31 O                |  81 Fe               |  91 O                |   168.46
   44 O                |  81 Fe               |  47 O                |    92.55
   44 O                |  81 Fe               |  75 O                |    97.95
   44 O                |  81 Fe               |  82 Lu               |    83.86
   44 O                |  81 Fe               |  91 O                |    97.90
   47 O                |  81 Fe               |  75 O                |   168.43
   47 O                |  81 Fe               |  82 Lu               |   108.28
   47 O                |  81 Fe               |  91 O                |    83.79
   75 O                |  81 Fe               |  82 Lu               |    77.84
   75 O                |  81 Fe               |  91 O                |    99.49
   81 Fe               |  91 O                |  82 Lu               |   123.31
    1 Fe               |  82 Lu               |  33 Fe               |    52.42
    1 Fe               |  82 Lu               |  49 Fe               |    83.50
    1 Fe               |  82 Lu               |  50 Fe               |    63.79
    1 Fe               |  82 Lu               |  52 Fe               |   114.90
   82 Lu               |  60 O                |   1 Fe               |   123.25
    1 Fe               |  82 Lu               |  64 O                |   108.18
    1 Fe               |  82 Lu               |  66 Fe               |   116.24
    1 Fe               |  82 Lu               |  81 Fe               |   106.06
    1 Fe               |  82 Lu               |  84 Fe               |   145.33
    1 Fe               |  82 Lu               |  91 O                |    83.84
    1 Fe               |  82 Lu               |  92 O                |    77.85
    1 Fe               |  82 Lu               |  94 O                |   110.54
    1 Fe               |  82 Lu               |  96 O                |   160.58
   33 Fe               |  82 Lu               |  49 Fe               |   106.08
   33 Fe               |  82 Lu               |  50 Fe               |   116.21
   33 Fe               |  82 Lu               |  52 Fe               |   145.29
   33 Fe               |  82 Lu               |  60 O                |    77.84
   33 Fe               |  82 Lu               |  64 O                |   160.49
   33 Fe               |  82 Lu               |  66 Fe               |    63.82
   33 Fe               |  82 Lu               |  81 Fe               |    83.52
   33 Fe               |  82 Lu               |  84 Fe               |   114.90
   33 Fe               |  82 Lu               |  91 O                |    83.86
   82 Lu               |  92 O                |  33 Fe               |   123.31
   33 Fe               |  82 Lu               |  94 O                |   110.43
   33 Fe               |  82 Lu               |  96 O                |   108.28
   49 Fe               |  82 Lu               |  50 Fe               |    63.80
   49 Fe               |  82 Lu               |  52 Fe               |   103.65
   49 Fe               |  82 Lu               |  60 O                |    84.75
   49 Fe               |  82 Lu               |  64 O                |    65.58
   49 Fe               |  82 Lu               |  66 Fe               |   116.19
   49 Fe               |  82 Lu               |  81 Fe               |    52.40
   49 Fe               |  82 Lu               |  84 Fe               |   129.57
   82 Lu               |  91 O                |  49 Fe               |   123.30
   49 Fe               |  82 Lu               |  92 O                |   125.59
   49 Fe               |  82 Lu               |  94 O                |   141.91
   49 Fe               |  82 Lu               |  96 O                |   102.45
   50 Fe               |  82 Lu               |  52 Fe               |    62.98
   82 Lu               |  60 O                |  50 Fe               |    99.48
   82 Lu               |  64 O                |  50 Fe               |    91.11
   50 Fe               |  82 Lu               |  66 Fe               |   179.97
   50 Fe               |  82 Lu               |  81 Fe               |   116.21
   50 Fe               |  82 Lu               |  84 Fe               |   117.01
   50 Fe               |  82 Lu               |  91 O                |    90.01
   50 Fe               |  82 Lu               |  92 O                |   139.75
   50 Fe               |  82 Lu               |  94 O                |    90.09
   50 Fe               |  82 Lu               |  96 O                |   135.46
   52 Fe               |  82 Lu               |  60 O                |    87.54
   82 Lu               |  64 O                |  52 Fe               |   103.73
   52 Fe               |  82 Lu               |  66 Fe               |   117.00
   52 Fe               |  82 Lu               |  81 Fe               |   129.59
   52 Fe               |  82 Lu               |  84 Fe               |    54.04
   52 Fe               |  82 Lu               |  91 O                |   129.71
   52 Fe               |  82 Lu               |  92 O                |   130.61
   82 Lu               |  94 O                |  52 Fe               |   103.60
   52 Fe               |  82 Lu               |  96 O                |    81.99
   60 O                |  82 Lu               |  64 O                |    83.69
   60 O                |  82 Lu               |  66 Fe               |   139.77
   60 O                |  82 Lu               |  81 Fe               |   125.62
   60 O                |  82 Lu               |  84 Fe               |   130.58
   60 O                |  82 Lu               |  91 O                |    97.95
   60 O                |  82 Lu               |  92 O                |    99.49
   60 O                |  82 Lu               |  94 O                |    92.49
   60 O                |  82 Lu               |  96 O                |   168.43
   64 O                |  82 Lu               |  66 Fe               |   135.53
   64 O                |  82 Lu               |  81 Fe               |   102.54
   64 O                |  82 Lu               |  84 Fe               |    82.03
   64 O                |  82 Lu               |  91 O                |    92.60
   64 O                |  82 Lu               |  92 O                |   168.46
   64 O                |  82 Lu               |  94 O                |    76.35
   64 O                |  82 Lu               |  96 O                |    91.01
   66 Fe               |  82 Lu               |  81 Fe               |    63.79
   66 Fe               |  82 Lu               |  84 Fe               |    62.97
   66 Fe               |  82 Lu               |  91 O                |    89.99
   82 Lu               |  92 O                |  66 Fe               |    99.48
   66 Fe               |  82 Lu               |  94 O                |    89.90
   82 Lu               |  96 O                |  66 Fe               |    91.07
   81 Fe               |  82 Lu               |  84 Fe               |   103.64
   82 Lu               |  91 O                |  81 Fe               |   123.31
   81 Fe               |  82 Lu               |  92 O                |    84.72
   81 Fe               |  82 Lu               |  94 O                |   141.78
   81 Fe               |  82 Lu               |  96 O                |    65.56
   84 Fe               |  82 Lu               |  91 O                |   129.68
   84 Fe               |  82 Lu               |  92 O                |    87.57
   82 Lu               |  94 O                |  84 Fe               |   103.77
   82 Lu               |  96 O                |  84 Fe               |   103.77
   91 O                |  82 Lu               |  92 O                |    97.90
   91 O                |  82 Lu               |  94 O                |   163.90
   91 O                |  82 Lu               |  96 O                |    92.55
   92 O                |  82 Lu               |  94 O                |    92.38
   92 O                |  82 Lu               |  96 O                |    83.79
   94 O                |  82 Lu               |  96 O                |    76.23
   13 O                |  83 Fe               |  42 O                |    92.60
   13 O                |  83 Fe               |  45 O                |    91.01
   13 O                |  83 Fe               |  57 O                |    83.69
   13 O                |  83 Fe               |  89 O                |   168.46
   42 O                |  83 Fe               |  45 O                |    92.55
   42 O                |  83 Fe               |  57 O                |    97.95
   42 O                |  83 Fe               |  89 O                |    97.90
   45 O                |  83 Fe               |  57 O                |   168.43
   45 O                |  83 Fe               |  89 O                |    83.79
   57 O                |  83 Fe               |  89 O                |    99.49
   74 O                |  84 Fe               |  78 O                |    83.69
   74 O                |  84 Fe               |  82 Lu               |   130.58
   74 O                |  84 Fe               |  89 O                |    97.95
   74 O                |  84 Fe               |  90 O                |    99.49
   74 O                |  84 Fe               |  94 O                |   168.43
   74 O                |  84 Fe               |  96 O                |    92.49
   78 O                |  84 Fe               |  82 Lu               |    82.03
   78 O                |  84 Fe               |  89 O                |    92.60
   78 O                |  84 Fe               |  90 O                |   168.46
   78 O                |  84 Fe               |  94 O                |    91.01
   78 O                |  84 Fe               |  96 O                |    76.35
   82 Lu               |  84 Fe               |  89 O                |   129.68
   82 Lu               |  84 Fe               |  90 O                |    87.57
   84 Fe               |  94 O                |  82 Lu               |   103.77
   84 Fe               |  96 O                |  82 Lu               |   103.77
   89 O                |  84 Fe               |  90 O                |    97.90
   89 O                |  84 Fe               |  94 O                |    92.55
   89 O                |  84 Fe               |  96 O                |   163.90
   90 O                |  84 Fe               |  94 O                |    83.79
   90 O                |  84 Fe               |  96 O                |    92.38
   94 O                |  84 Fe               |  96 O                |    76.23
   67 Fe               |  89 O                |  83 Fe               |    99.48
   67 Fe               |  89 O                |  84 Fe               |   123.30
   83 Fe               |  89 O                |  84 Fe               |   123.31
   35 Fe               |  90 O                |  52 Fe               |   123.30
   35 Fe               |  90 O                |  84 Fe               |   123.31
   52 Fe               |  90 O                |  84 Fe               |    99.48
   49 Fe               |  91 O                |  81 Fe               |    99.48
   49 Fe               |  91 O                |  82 Lu               |   123.30
   81 Fe               |  91 O                |  82 Lu               |   123.31
   33 Fe               |  92 O                |  66 Fe               |   123.30
   33 Fe               |  92 O                |  82 Lu               |   123.31
   66 Fe               |  92 O                |  82 Lu               |    99.48
   19 Fe               |  93 O                |  35 Fe               |    91.07
   19 Fe               |  93 O                |  85 H                |   111.64
   35 Fe               |  93 O                |  85 H                |   111.77
   52 Fe               |  94 O                |  82 Lu               |   103.60
   52 Fe               |  94 O                |  84 Fe               |    91.07
   52 Fe               |  94 O                |  86 H                |   111.64
   82 Lu               |  94 O                |  84 Fe               |   103.77
   82 Lu               |  94 O                |  86 H                |   128.39
   84 Fe               |  94 O                |  86 H                |   111.77
    1 Fe               |  95 O                |  33 Fe               |    91.07
    1 Fe               |  95 O                |  87 H                |   111.64
   33 Fe               |  95 O                |  87 H                |   111.77
   66 Fe               |  96 O                |  82 Lu               |    91.07
   66 Fe               |  96 O                |  84 Fe               |   103.60
   66 Fe               |  96 O                |  88 H                |   111.64
   82 Lu               |  96 O                |  84 Fe               |   103.77
   82 Lu               |  96 O                |  88 H                |   111.77
   84 Fe               |  96 O                |  88 H                |   128.39
 ------------------------------------------------------------------------------
                            number of included internuclear angles:        406
 ==============================================================================



          ****************************************************
          *                                                  *
          *               NWPW PSPW Calculation              *
          *                                                  *
          * [ (Grassmann/Stiefel manifold implementation)  ] *
          *                                                  *
          *      [ NorthWest Chemistry implementation ]      *
          *                                                  *
          *            version #5.10   06/12/02              *
          *                                                  *
          *    This code was developed by Eric J. Bylaska,   *
          *    and was based upon algorithms and code        *
          *    developed by the group of Prof. John H. Weare *
          *                                                  *
          ****************************************************
     >>>  JOB STARTED       AT Tue Jan 24 08:00:33 2023  <<<
          ================ input data ========================

 Antiferromagnetic Pentalty Function Input:
   - pspspin: up    l = 3           scale =  -1.000
   - pspspin: up    ion indexes  =    1    4   17   20   33   36   49   52   65   68
   - pspspin: up    ion indexes  =   81   84
   - pspspin: down  l = 3           scale =  -1.000
   - pspspin: down  ion indexes  =    2    3   18   19   34   35   50   51   66   67
   - pspspin: down  ion indexes  =   83
  library name resolved from: compiled reference
  NWCHEM_NWPW_LIBRARY set to: </Users/bylaska/nwchem-releases/nwchem/src/nwpw/libraryps/>
 Generating 1d pseudopotential for Fe  

 Generated formatted_filename: ./perm/Fe.vpp
 - filtering pseudopotential -
  library name resolved from: compiled reference
  NWCHEM_NWPW_LIBRARY set to: </Users/bylaska/nwchem-releases/nwchem/src/nwpw/libraryps/>
 Generating 1d pseudopotential for H   

 Generated formatted_filename: ./perm/H.vpp
 - filtering pseudopotential -
  library name resolved from: compiled reference
  NWCHEM_NWPW_LIBRARY set to: </Users/bylaska/nwchem-releases/nwchem/src/nwpw/libraryps/>
 Generating 1d pseudopotential for O   

 Generated formatted_filename: ./perm/O.vpp
 - filtering pseudopotential -
  library name resolved from: compiled reference
  NWCHEM_NWPW_LIBRARY set to: </Users/bylaska/nwchem-releases/nwchem/src/nwpw/libraryps/>
 Generating 1d pseudopotential for Lu  

 Generated formatted_filename: ./perm/Lu.vpp
 - filtering pseudopotential -
 random planewave guess, initial psi:goethite_Lu82.movecs                              
 -   spin, nalpha, nbeta:                    2                  263                  258

 input psi filename:./perm/goethite_Lu82.movecs

 Warning - K.S. orbitals are not orthonormal. Applying Gram-Schmidt orthonormalization.
         - exact norm=0.521000E+03 norm=0.328975E+03 corrected norm=0.521000E+03 (error=0.192025E+03)


 number of processors used:         8
 processor grid           :   8 x   1
 parallel mapping         :2d-hilbert
 parallel mapping         :  balanced
 number of threads        :         1
 parallel io              :       off

 options:
      boundary conditions  = periodic    (version3)
      electron spin        = unrestricted
      exchange-correlation = PBE96 (White and Bird) parameterization

 elements involved in the cluster:
      1: Fe  valence charge:  8.0000  lmax=  2
             comment    : Troullier-Martins pseudopotential
             pseudpotential type            :   0
             highest angular component      :   2
             local potential used           :   0
             number of non-local projections:   8
             semicore corrections included  :  0.800 (radius)  8.947 (charge)
             cutoff =   2.292   2.835   2.292

      2: H   valence charge:  1.0000  lmax=  1
             comment    : Parameterized (Chem.Phys.Lett., vol 322, page 447) Hamman psp
             pseudpotential type            :   0
             highest angular component      :   1
             local potential used           :   1
             number of non-local projections:   1
             cutoff =   0.800   0.800

      3: O   valence charge:  6.0000  lmax=  2
             comment    : Parameterized (Chem.Phys.Lett., vol 322, page 447) Hamman psp
             pseudpotential type            :   0
             highest angular component      :   2
             local potential used           :   2
             number of non-local projections:   4
             cutoff =   0.700   0.700   0.700

      4: Lu  valence charge:25.0  core charge:46.0
             comment    : Parameterized Lu paw (4f5s5p5d5f6s6p projectors, 4/5/2022 by EJB)
             pseudpotential type            :   4
             loggrid parameter r0        : 0.200E-02
             loggrid parameter rmax      : 0.250E+02
             loggrid parameter npoints   :      3000
             augmentation sphere radius  :     2.392 ( 2254 npoints 2254 per task)
             compensation sigma          :     0.346
             total number of projectors  :        27
             n_ps (n) l          eig      #projector
                4 (4) f    -0.386391               7
                1 (5) s    -2.109986               1
                2 (5) p    -1.185266               3
                3 (5) d    -0.078758               5
                5 (5) f     1.000000               7
                2 (6) s    -0.168724               1
                3 (6) p    -0.054943               3


 total charge:   0.000

 atomic composition:
     Fe  :   23     H   :   24     O   :   48     Lu  :    1

 number of electrons: spin up=   263 ( 263 per task)  down=   258 ( 258 per task) (Fourier space)
 number of orbitals : spin up=   263 ( 263 per task)  down=   258 ( 258 per task) (Fourier space)

 supercell:
      cell_name:  cell_default                                      
      lattice:    a1=<  19.023   0.000   0.000 >
                  a2=<   0.000  17.301   0.000 >
                  a3=<   0.000   0.000  17.393 >
      reciprocal: b1=<   0.330   0.000  -0.000 >
                  b2=<  -0.000   0.363  -0.000 >
                  b3=<   0.000   0.000   0.361 >
      lattice:    a=      19.023 b=     17.301 c=      17.393
                  alpha=  90.000 beta=  90.000 gamma=  90.000
                  omega=      5724.4

      density cutoff= 30.000  fft= 48x 48x 48(    22494 waves     2811 per task)
      wavefnc cutoff= 15.000  fft= 48x 48x 48(     7971 waves      996 per task)
      paw integration: xc lmax=  0 compensation charge= two-electron Gaussian
      Ewald summation: cut radius=    3.50  and  8
                       Madelung Wigner-Seitz=    1.75499096 (alpha=    2.82903130 rs=11.09723364)

 technical parameters:
      time step=      1.00     fictitious mass=  400000.0
      tolerance=0.100E-06 (energy)   0.100E-06 (density)
      maximum iterations =       100 (   10 inner     10 outer )





== Energy Calculation ==


          ====== Grassmann conjugate gradient iteration ======
     >>>  ITERATION STARTED AT Tue Jan 24 08:00:53 2023  <<<
    iter.           Energy         DeltaE       DeltaRho 
    ------------------------------------------------------
     -  15 steepest descent iterations performed
      10   -0.1749121870E+04   -0.11705E+02    0.44567E-01
     -  10 steepest descent iterations performed
      20   -0.1833737211E+04   -0.13911E+02    0.11511E+00
     -  10 steepest descent iterations performed
      30   -0.1862193568E+04   -0.21344E+01    0.67254E-01
     -  10 steepest descent iterations performed
      40   -0.1872703519E+04   -0.31074E+00    0.79710E-02
     -  10 steepest descent iterations performed
      50   -0.1880766292E+04   -0.12198E+01    0.15316E-01
     -  10 steepest descent iterations performed
      60   -0.1884955232E+04   -0.24903E+00    0.50898E-02
     -  10 steepest descent iterations performed
      70   -0.1890414937E+04   -0.16858E+00    0.34025E-02
     -  10 steepest descent iterations performed
      80   -0.1895099849E+04   -0.68167E+00    0.90271E-02
     -  10 steepest descent iterations performed
      90   -0.1897465695E+04   -0.13577E+00    0.27194E-02
     -  10 steepest descent iterations performed
     100   -0.1900569922E+04   -0.98690E-01    0.19033E-02
 *** arrived at the Maximum iteration.  terminated
     >>>  ITERATION ENDED   AT Tue Jan 24 08:17:28 2023  <<<


==  Summary Of Results  ==

 number of electrons: spin up=  263.00000  down=  258.00000 (real space)
     plane-wave part:           258.11635         253.13291 (real space)
      augmented part:             4.88365           4.86709 (real space)

 total     energy    :  -0.1900569922E+04 (   -0.19798E+02/ion)

 total paw energy    :  -0.1597484842E+05 (   -0.16640E+03/ion)
 total orbital energy:   0.2990132084E+02 (    0.57392E-01/electron)
 hartree   energy    :   0.3057952130E+03 (    0.58694E+00/electron)
 exc-corr  energy    :  -0.4920503647E+03 (   -0.94443E+00/electron)
 ion-ion   energy    :  -0.1123723142E+04 (   -0.11705E+02/ion)

 kinetic (planewave) :   0.1090563746E+04 (    0.20932E+01/electron)
 V_local (planewave) :  -0.7245429076E+03 (   -0.13907E+01/electron)
 V_nl    (planewave) :  -0.6341295776E+03 (   -0.12171E+01/electron)
 V_Coul  (planewave) :   0.6115904260E+03 (    0.11739E+01/electron)
 V_xc.   (planewave) :  -0.3788263979E+03 (   -0.72711E+00/electron)
 Virial Coefficient  :  -0.1032409578E+01

 kinetic (loc. basis):   0.4215424446E+03 (    0.80910E+00/electron)
 kinetic       (core):   0.1428099103E+05 (    0.14876E+03/ion)
 valence-core        :  -0.1253065390E+03 (   -0.24051E+00/electron)
 ncmp*V_local        :  -0.4921852654E+03 (   -0.94469E+00/electron)
 V_lpaw  (loc. basis):   0.3790280573E+01 (    0.72750E-02/electron)
 coulomb (loc. basis):  -0.3783381554E+02 (   -0.72618E-01/electron)
 coulomb  (ncmp-ncmp):   0.1020267454E+03 (    0.19583E+00/electron)
 coulomb    (ncmp-pw):   0.6524603185E+02 (    0.12523E+00/electron)
 exc-cor (loc. basis):  -0.2862856093E+03 (   -0.54949E+00/electron)
 pxc-cor (loc. basis):  -0.2799564994E+02 (   -0.29162E+00/electron)
 ion-core            :  -0.2835526953E+05 (   -0.29537E+03/ion)

 orbital energies:
     0.6021295E+00 (  16.385eV)
     0.5619248E+00 (  15.291eV)
     0.5501269E+00 (  14.970eV)
     0.5439001E+00 (  14.800eV)
     0.5386417E+00 (  14.657eV)
     0.5320666E+00 (  14.478eV)     0.6071344E+00 (  16.521eV)
     0.5228162E+00 (  14.227eV)     0.5677522E+00 (  15.449eV)
     0.5122925E+00 (  13.940eV)     0.5438955E+00 (  14.800eV)
     0.5015883E+00 (  13.649eV)     0.5360225E+00 (  14.586eV)
     0.4946744E+00 (  13.461eV)     0.5315292E+00 (  14.464eV)
     0.4889086E+00 (  13.304eV)     0.5183244E+00 (  14.104eV)
     0.4817542E+00 (  13.109eV)     0.5180532E+00 (  14.097eV)
     0.4676436E+00 (  12.725eV)     0.4977442E+00 (  13.544eV)
     0.4622979E+00 (  12.580eV)     0.4913841E+00 (  13.371eV)
     0.4540793E+00 (  12.356eV)     0.4875499E+00 (  13.267eV)
     0.4487020E+00 (  12.210eV)     0.4787967E+00 (  13.029eV)
     0.4432854E+00 (  12.063eV)     0.4741182E+00 (  12.902eV)
     0.4347336E+00 (  11.830eV)     0.4605321E+00 (  12.532eV)
     0.4297482E+00 (  11.694eV)     0.4566390E+00 (  12.426eV)
     0.4281176E+00 (  11.650eV)     0.4540814E+00 (  12.356eV)
     0.4235547E+00 (  11.526eV)     0.4421988E+00 (  12.033eV)
     0.4172209E+00 (  11.353eV)     0.4359490E+00 (  11.863eV)
     0.4119861E+00 (  11.211eV)     0.4328597E+00 (  11.779eV)
     0.4116094E+00 (  11.201eV)     0.4274174E+00 (  11.631eV)
     0.4077236E+00 (  11.095eV)     0.4184189E+00 (  11.386eV)
     0.4063602E+00 (  11.058eV)     0.4146346E+00 (  11.283eV)
     0.4002612E+00 (  10.892eV)     0.4127733E+00 (  11.232eV)
     0.3954450E+00 (  10.761eV)     0.4060328E+00 (  11.049eV)
     0.3930713E+00 (  10.696eV)     0.4023211E+00 (  10.948eV)
     0.3919273E+00 (  10.665eV)     0.3977658E+00 (  10.824eV)
     0.3884089E+00 (  10.569eV)     0.3965318E+00 (  10.790eV)
     0.3856857E+00 (  10.495eV)     0.3926688E+00 (  10.685eV)
     0.3846302E+00 (  10.466eV)     0.3913867E+00 (  10.650eV)
     0.3809627E+00 (  10.367eV)     0.3883133E+00 (  10.567eV)
     0.3801562E+00 (  10.345eV)     0.3856746E+00 (  10.495eV)
     0.3793410E+00 (  10.322eV)     0.3824045E+00 (  10.406eV)
     0.3746812E+00 (  10.196eV)     0.3789954E+00 (  10.313eV)
     0.3733604E+00 (  10.160eV)     0.3784626E+00 (  10.299eV)
     0.3704815E+00 (  10.081eV)     0.3758982E+00 (  10.229eV)
     0.3647831E+00 (   9.926eV)     0.3742999E+00 (  10.185eV)
     0.3645859E+00 (   9.921eV)     0.3708001E+00 (  10.090eV)
     0.3610638E+00 (   9.825eV)     0.3688505E+00 (  10.037eV)
     0.3600698E+00 (   9.798eV)     0.3667049E+00 (   9.979eV)
     0.3581698E+00 (   9.746eV)     0.3646991E+00 (   9.924eV)
     0.3564035E+00 (   9.698eV)     0.3641680E+00 (   9.910eV)
     0.3536086E+00 (   9.622eV)     0.3604813E+00 (   9.809eV)
     0.3526337E+00 (   9.596eV)     0.3594158E+00 (   9.780eV)
     0.3504855E+00 (   9.537eV)     0.3580732E+00 (   9.744eV)
     0.3484871E+00 (   9.483eV)     0.3566246E+00 (   9.704eV)
     0.3472793E+00 (   9.450eV)     0.3558206E+00 (   9.682eV)
     0.3463595E+00 (   9.425eV)     0.3538740E+00 (   9.629eV)
     0.3459390E+00 (   9.414eV)     0.3516486E+00 (   9.569eV)
     0.3434436E+00 (   9.346eV)     0.3504030E+00 (   9.535eV)
     0.3423223E+00 (   9.315eV)     0.3488089E+00 (   9.492eV)
     0.3410108E+00 (   9.279eV)     0.3475474E+00 (   9.457eV)
     0.3401891E+00 (   9.257eV)     0.3472295E+00 (   9.449eV)
     0.3387165E+00 (   9.217eV)     0.3453797E+00 (   9.398eV)
     0.3372491E+00 (   9.177eV)     0.3444327E+00 (   9.373eV)
     0.3350561E+00 (   9.117eV)     0.3422072E+00 (   9.312eV)
     0.3346043E+00 (   9.105eV)     0.3401584E+00 (   9.256eV)
     0.3332529E+00 (   9.068eV)     0.3397367E+00 (   9.245eV)
     0.3307736E+00 (   9.001eV)     0.3380174E+00 (   9.198eV)
     0.3290865E+00 (   8.955eV)     0.3375753E+00 (   9.186eV)
     0.3272696E+00 (   8.906eV)     0.3370411E+00 (   9.171eV)
     0.3266456E+00 (   8.889eV)     0.3348360E+00 (   9.111eV)
     0.3260742E+00 (   8.873eV)     0.3341215E+00 (   9.092eV)
     0.3217761E+00 (   8.756eV)     0.3290749E+00 (   8.955eV)
     0.3212316E+00 (   8.741eV)     0.3260604E+00 (   8.873eV)
     0.3190305E+00 (   8.681eV)     0.3256666E+00 (   8.862eV)
     0.3141841E+00 (   8.549eV)     0.3230396E+00 (   8.790eV)
     0.3133899E+00 (   8.528eV)     0.3211565E+00 (   8.739eV)
     0.3101013E+00 (   8.438eV)     0.3194624E+00 (   8.693eV)
     0.3039410E+00 (   8.271eV)     0.3099572E+00 (   8.434eV)
     0.2923006E+00 (   7.954eV)     0.3085885E+00 (   8.397eV)
     0.2831631E+00 (   7.705eV)     0.3026362E+00 (   8.235eV)
     0.2728462E+00 (   7.425eV)     0.2838160E+00 (   7.723eV)
     0.2692038E+00 (   7.325eV)     0.2800513E+00 (   7.621eV)
     0.2633889E+00 (   7.167eV)     0.2697925E+00 (   7.341eV)
     0.2595056E+00 (   7.062eV)     0.2615455E+00 (   7.117eV)
     0.2479303E+00 (   6.747eV)     0.2581627E+00 (   7.025eV)
     0.2408903E+00 (   6.555eV)     0.2541400E+00 (   6.916eV)
     0.2390230E+00 (   6.504eV)     0.2435409E+00 (   6.627eV)
     0.2325009E+00 (   6.327eV)     0.2387429E+00 (   6.497eV)
     0.2229010E+00 (   6.065eV)     0.2365003E+00 (   6.436eV)
     0.2173038E+00 (   5.913eV)     0.2329281E+00 (   6.338eV)
     0.2139146E+00 (   5.821eV)     0.2271569E+00 (   6.181eV)
     0.2096080E+00 (   5.704eV)     0.2235027E+00 (   6.082eV)
     0.2065373E+00 (   5.620eV)     0.2201364E+00 (   5.990eV)
     0.2026910E+00 (   5.516eV)     0.2131167E+00 (   5.799eV)
     0.1998110E+00 (   5.437eV)     0.2090699E+00 (   5.689eV)
     0.1973003E+00 (   5.369eV)     0.2045811E+00 (   5.567eV)
     0.1934035E+00 (   5.263eV)     0.2005761E+00 (   5.458eV)
     0.1927435E+00 (   5.245eV)     0.1972440E+00 (   5.367eV)
     0.1907952E+00 (   5.192eV)     0.1959328E+00 (   5.332eV)
     0.1893758E+00 (   5.153eV)     0.1933710E+00 (   5.262eV)
     0.1885950E+00 (   5.132eV)     0.1914465E+00 (   5.210eV)
     0.1882415E+00 (   5.122eV)     0.1898699E+00 (   5.167eV)
     0.1847520E+00 (   5.027eV)     0.1877148E+00 (   5.108eV)
     0.1839863E+00 (   5.007eV)     0.1843312E+00 (   5.016eV)
     0.1817237E+00 (   4.945eV)     0.1836218E+00 (   4.997eV)
     0.1808112E+00 (   4.920eV)     0.1829083E+00 (   4.977eV)
     0.1783188E+00 (   4.852eV)     0.1822306E+00 (   4.959eV)
     0.1763008E+00 (   4.797eV)     0.1801987E+00 (   4.903eV)
     0.1741573E+00 (   4.739eV)     0.1786944E+00 (   4.863eV)
     0.1733091E+00 (   4.716eV)     0.1775248E+00 (   4.831eV)
     0.1725273E+00 (   4.695eV)     0.1762084E+00 (   4.795eV)
     0.1708735E+00 (   4.650eV)     0.1752611E+00 (   4.769eV)
     0.1697289E+00 (   4.619eV)     0.1744381E+00 (   4.747eV)
     0.1687540E+00 (   4.592eV)     0.1731352E+00 (   4.711eV)
     0.1678336E+00 (   4.567eV)     0.1723496E+00 (   4.690eV)
     0.1663991E+00 (   4.528eV)     0.1697159E+00 (   4.618eV)
     0.1653550E+00 (   4.500eV)     0.1683915E+00 (   4.582eV)
     0.1646391E+00 (   4.480eV)     0.1667818E+00 (   4.538eV)
     0.1631132E+00 (   4.439eV)     0.1659669E+00 (   4.516eV)
     0.1616870E+00 (   4.400eV)     0.1646143E+00 (   4.479eV)
     0.1610251E+00 (   4.382eV)     0.1629119E+00 (   4.433eV)
     0.1562321E+00 (   4.251eV)     0.1614932E+00 (   4.394eV)
     0.1559702E+00 (   4.244eV)     0.1606817E+00 (   4.372eV)
     0.1544168E+00 (   4.202eV)     0.1581821E+00 (   4.304eV)
     0.1514918E+00 (   4.122eV)     0.1547620E+00 (   4.211eV)
     0.1494907E+00 (   4.068eV)     0.1540487E+00 (   4.192eV)
     0.1494371E+00 (   4.066eV)     0.1521382E+00 (   4.140eV)
     0.1460407E+00 (   3.974eV)     0.1491569E+00 (   4.059eV)
     0.1441460E+00 (   3.922eV)     0.1476797E+00 (   4.019eV)
     0.1428337E+00 (   3.887eV)     0.1463866E+00 (   3.983eV)
     0.1421701E+00 (   3.869eV)     0.1461843E+00 (   3.978eV)
     0.1398947E+00 (   3.807eV)     0.1445066E+00 (   3.932eV)
     0.1392217E+00 (   3.788eV)     0.1431088E+00 (   3.894eV)
     0.1389726E+00 (   3.782eV)     0.1418719E+00 (   3.861eV)
     0.1362945E+00 (   3.709eV)     0.1407718E+00 (   3.831eV)
     0.1353144E+00 (   3.682eV)     0.1399640E+00 (   3.809eV)
     0.1346297E+00 (   3.663eV)     0.1391854E+00 (   3.787eV)
     0.1341545E+00 (   3.651eV)     0.1383414E+00 (   3.764eV)
     0.1323986E+00 (   3.603eV)     0.1369776E+00 (   3.727eV)
     0.1318803E+00 (   3.589eV)     0.1361566E+00 (   3.705eV)
     0.1305665E+00 (   3.553eV)     0.1349526E+00 (   3.672eV)
[...]
     0.1762235E+00 (   4.795eV)     0.1736292E+00 (   4.725eV)
     0.1706052E+00 (   4.642eV)     0.1726356E+00 (   4.698eV)
     0.1696975E+00 (   4.618eV)     0.1706241E+00 (   4.643eV)
     0.1684058E+00 (   4.583eV)     0.1662401E+00 (   4.524eV)
     0.1614418E+00 (   4.393eV)     0.1626446E+00 (   4.426eV)
     0.1597251E+00 (   4.346eV)     0.1618597E+00 (   4.404eV)
     0.1585286E+00 (   4.314eV)     0.1606665E+00 (   4.372eV)
     0.1580590E+00 (   4.301eV)     0.1604721E+00 (   4.367eV)
     0.1571801E+00 (   4.277eV)     0.1586184E+00 (   4.316eV)
     0.1564137E+00 (   4.256eV)     0.1574563E+00 (   4.285eV)
     0.1543878E+00 (   4.201eV)     0.1566476E+00 (   4.263eV)
     0.1543145E+00 (   4.199eV)     0.1554663E+00 (   4.230eV)
     0.1526215E+00 (   4.153eV)     0.1548510E+00 (   4.214eV)
     0.1523192E+00 (   4.145eV)     0.1541853E+00 (   4.196eV)
     0.1514102E+00 (   4.120eV)     0.1532468E+00 (   4.170eV)
     0.1506575E+00 (   4.100eV)     0.1527387E+00 (   4.156eV)
     0.1502802E+00 (   4.089eV)     0.1522918E+00 (   4.144eV)
     0.1483725E+00 (   4.037eV)     0.1516873E+00 (   4.128eV)
     0.1477372E+00 (   4.020eV)     0.1493470E+00 (   4.064eV)
     0.1467969E+00 (   3.995eV)     0.1485823E+00 (   4.043eV)
     0.1462555E+00 (   3.980eV)     0.1484781E+00 (   4.040eV)
     0.1454725E+00 (   3.959eV)     0.1477073E+00 (   4.019eV)
     0.1452581E+00 (   3.953eV)     0.1464951E+00 (   3.986eV)
     0.1447246E+00 (   3.938eV)     0.1460666E+00 (   3.975eV)
     0.1428937E+00 (   3.888eV)     0.1441962E+00 (   3.924eV)
     0.1416518E+00 (   3.855eV)     0.1437508E+00 (   3.912eV)
     0.1412385E+00 (   3.843eV)     0.1427446E+00 (   3.884eV)
     0.1406575E+00 (   3.828eV)     0.1422031E+00 (   3.870eV)
     0.1396133E+00 (   3.799eV)     0.1402587E+00 (   3.817eV)
     0.1387016E+00 (   3.774eV)     0.1401597E+00 (   3.814eV)
     0.1380499E+00 (   3.757eV)     0.1389612E+00 (   3.781eV)
     0.1370316E+00 (   3.729eV)     0.1386311E+00 (   3.772eV)
     0.1364049E+00 (   3.712eV)     0.1374727E+00 (   3.741eV)
     0.1355229E+00 (   3.688eV)     0.1371710E+00 (   3.733eV)
     0.1341782E+00 (   3.651eV)     0.1354283E+00 (   3.685eV)
     0.1326395E+00 (   3.609eV)     0.1342187E+00 (   3.652eV)
     0.1317991E+00 (   3.586eV)     0.1328722E+00 (   3.616eV)
     0.1276868E+00 (   3.475eV)     0.1283538E+00 (   3.493eV)
     0.1253554E+00 (   3.411eV)     0.1271031E+00 (   3.459eV)
     0.1249547E+00 (   3.400eV)     0.1259912E+00 (   3.428eV)
     0.1241544E+00 (   3.378eV)     0.1254418E+00 (   3.413eV)
     0.1233417E+00 (   3.356eV)     0.1244240E+00 (   3.386eV)
     0.1225485E+00 (   3.335eV)     0.1237754E+00 (   3.368eV)
     0.1214521E+00 (   3.305eV)     0.1230105E+00 (   3.347eV)
     0.1196302E+00 (   3.255eV)     0.1205342E+00 (   3.280eV)
     0.1152995E+00 (   3.137eV)     0.1168333E+00 (   3.179eV)
     0.1147641E+00 (   3.123eV)     0.1162026E+00 (   3.162eV)
     0.1140022E+00 (   3.102eV)     0.1153334E+00 (   3.138eV)
     0.1129637E+00 (   3.074eV)     0.1137753E+00 (   3.096eV)
     0.1109054E+00 (   3.018eV)     0.1123973E+00 (   3.059eV)
     0.1101838E+00 (   2.998eV)     0.1117684E+00 (   3.041eV)
     0.1093589E+00 (   2.976eV)     0.1112098E+00 (   3.026eV)
     0.1090516E+00 (   2.967eV)     0.1101063E+00 (   2.996eV)
     0.1079785E+00 (   2.938eV)     0.1095232E+00 (   2.980eV)
     0.1077059E+00 (   2.931eV)     0.1093273E+00 (   2.975eV)
     0.1067093E+00 (   2.904eV)     0.1085101E+00 (   2.953eV)
     0.1063275E+00 (   2.893eV)     0.1081892E+00 (   2.944eV)
     0.1057460E+00 (   2.878eV)     0.1079861E+00 (   2.938eV)
     0.1056661E+00 (   2.875eV)     0.1066414E+00 (   2.902eV)
     0.1053337E+00 (   2.866eV)     0.1064518E+00 (   2.897eV)
     0.1051668E+00 (   2.862eV)     0.1062461E+00 (   2.891eV)
     0.1045674E+00 (   2.845eV)     0.1057360E+00 (   2.877eV)
     0.1044433E+00 (   2.842eV)     0.1053990E+00 (   2.868eV)
     0.1041640E+00 (   2.834eV)     0.1051166E+00 (   2.860eV)
     0.1036603E+00 (   2.821eV)     0.1046915E+00 (   2.849eV)
     0.1030423E+00 (   2.804eV)     0.1042891E+00 (   2.838eV)
     0.1028573E+00 (   2.799eV)     0.1037068E+00 (   2.822eV)
     0.1021887E+00 (   2.781eV)     0.1032871E+00 (   2.811eV)
     0.1018263E+00 (   2.771eV)     0.1031597E+00 (   2.807eV)
     0.1011044E+00 (   2.751eV)     0.1027455E+00 (   2.796eV)
     0.9931187E-01 (   2.702eV)     0.1005500E+00 (   2.736eV)
     0.9578515E-01 (   2.606eV)     0.9747313E-01 (   2.652eV)
     0.9544281E-01 (   2.597eV)     0.9690588E-01 (   2.637eV)
     0.9465284E-01 (   2.576eV)     0.9608980E-01 (   2.615eV)
     0.9389540E-01 (   2.555eV)     0.9551944E-01 (   2.599eV)
     0.9358406E-01 (   2.547eV)     0.9496046E-01 (   2.584eV)
     0.9230406E-01 (   2.512eV)     0.9409809E-01 (   2.561eV)
     0.9209468E-01 (   2.506eV)     0.9390263E-01 (   2.555eV)
     0.9194318E-01 (   2.502eV)     0.9355982E-01 (   2.546eV)
     0.9110418E-01 (   2.479eV)     0.9314465E-01 (   2.535eV)
     0.9086474E-01 (   2.473eV)     0.9240330E-01 (   2.514eV)
     0.9040069E-01 (   2.460eV)     0.9194894E-01 (   2.502eV)
     0.8998202E-01 (   2.449eV)     0.9152748E-01 (   2.491eV)
     0.8960345E-01 (   2.438eV)     0.9110312E-01 (   2.479eV)
     0.8937378E-01 (   2.432eV)     0.9050159E-01 (   2.463eV)
     0.8873010E-01 (   2.414eV)     0.8983314E-01 (   2.445eV)
     0.8723303E-01 (   2.374eV)     0.8889333E-01 (   2.419eV)
     0.8600360E-01 (   2.340eV)     0.8788648E-01 (   2.392eV)
     0.8407593E-01 (   2.288eV)     0.8679054E-01 (   2.362eV)
     0.8311764E-01 (   2.262eV)     0.8568684E-01 (   2.332eV)
     0.7805513E-01 (   2.124eV)     0.7953052E-01 (   2.164eV)
     0.7730270E-01 (   2.104eV)     0.7932082E-01 (   2.158eV)
     0.7540458E-01 (   2.052eV)     0.7757064E-01 (   2.111eV)
     0.7471423E-01 (   2.033eV)     0.7656669E-01 (   2.084eV)
     0.7360147E-01 (   2.003eV)     0.7496336E-01 (   2.040eV)
     0.7269002E-01 (   1.978eV)     0.7418555E-01 (   2.019eV)
     0.7203176E-01 (   1.960eV)     0.7282708E-01 (   1.982eV)
     0.7050372E-01 (   1.919eV)     0.7196538E-01 (   1.958eV)
     0.6934214E-01 (   1.887eV)     0.7058161E-01 (   1.921eV)
     0.6830451E-01 (   1.859eV)     0.6894209E-01 (   1.876eV)
     0.6578870E-01 (   1.790eV)     0.6687831E-01 (   1.820eV)
     0.6544532E-01 (   1.781eV)     0.6616795E-01 (   1.801eV)
     0.6294999E-01 (   1.713eV)     0.6449291E-01 (   1.755eV)
     0.6228974E-01 (   1.695eV)     0.6359129E-01 (   1.730eV)
     0.6206165E-01 (   1.689eV)     0.6282072E-01 (   1.709eV)
     0.6097451E-01 (   1.659eV)     0.6227987E-01 (   1.695eV)
     0.5366088E-01 (   1.460eV)     0.5473322E-01 (   1.489eV)
     0.5319697E-01 (   1.448eV)     0.5416857E-01 (   1.474eV)
     0.5272711E-01 (   1.435eV)     0.5377236E-01 (   1.463eV)
     0.5100793E-01 (   1.388eV)     0.5214468E-01 (   1.419eV)
     0.5063552E-01 (   1.378eV)     0.5173207E-01 (   1.408eV)
     0.4971722E-01 (   1.353eV)     0.5040174E-01 (   1.372eV)
     0.4045910E-01 (   1.101eV)     0.4210846E-01 (   1.146eV)
     0.3942720E-01 (   1.073eV)     0.4094162E-01 (   1.114eV)
     0.3528032E-01 (   0.960eV)     0.3664984E-01 (   0.997eV)
     0.1382569E-01 (   0.376eV)     0.1499803E-01 (   0.408eV)
     0.1086116E-01 (   0.296eV)     0.1169447E-01 (   0.318eV)
     0.9544605E-02 (   0.260eV)     0.1027124E-01 (   0.279eV)
     0.6099344E-02 (   0.166eV)     0.6723412E-02 (   0.183eV)
     0.5493174E-02 (   0.149eV)     0.6439142E-02 (   0.175eV)
     0.5206398E-02 (   0.142eV)     0.5983183E-02 (   0.163eV)
     0.4849031E-02 (   0.132eV)     0.5399263E-02 (   0.147eV)
     0.2642399E-02 (   0.072eV)     0.3459768E-02 (   0.094eV)
    -0.4308933E-02 (  -0.117eV)    -0.3560538E-02 (  -0.097eV)
    -0.4716059E-02 (  -0.128eV)    -0.4109578E-02 (  -0.112eV)
    -0.6410083E-02 (  -0.174eV)    -0.5528235E-02 (  -0.150eV)
    -0.7027627E-02 (  -0.191eV)    -0.6201437E-02 (  -0.169eV)
    -0.2515535E-01 (  -0.685eV)    -0.2451959E-01 (  -0.667eV)
    -0.2597348E-01 (  -0.707eV)    -0.2545379E-01 (  -0.693eV)
    -0.2724392E-01 (  -0.741eV)    -0.2675608E-01 (  -0.728eV)
    -0.2770178E-01 (  -0.754eV)    -0.2710618E-01 (  -0.738eV)
    -0.2852759E-01 (  -0.776eV)    -0.2792336E-01 (  -0.760eV)
    -0.3039242E-01 (  -0.827eV)    -0.2957410E-01 (  -0.805eV)
    -0.3352832E-01 (  -0.912eV)    -0.3287307E-01 (  -0.895eV)
    -0.3425207E-01 (  -0.932eV)    -0.3371094E-01 (  -0.917eV)
    -0.3742191E-01 (  -1.018eV)    -0.3683024E-01 (  -1.002eV)
    -0.3760566E-01 (  -1.023eV)    -0.3704196E-01 (  -1.008eV)
    -0.4629085E-01 (  -1.260eV)    -0.4575369E-01 (  -1.245eV)
    -0.5822689E-01 (  -1.584eV)    -0.5755339E-01 (  -1.566eV)
    -0.3577294E+00 (  -9.734eV)    -0.3583588E+00 (  -9.752eV)
    -0.3669118E+00 (  -9.984eV)    -0.3656870E+00 (  -9.951eV)
    -0.3765403E+00 ( -10.246eV)    -0.3759720E+00 ( -10.231eV)
    -0.3865169E+00 ( -10.518eV)    -0.3852917E+00 ( -10.484eV)
    -0.3877953E+00 ( -10.553eV)    -0.3867107E+00 ( -10.523eV)
    -0.3893448E+00 ( -10.595eV)    -0.3889508E+00 ( -10.584eV)
    -0.3900345E+00 ( -10.613eV)    -0.3896838E+00 ( -10.604eV)
    -0.3902216E+00 ( -10.619eV)    -0.3900214E+00 ( -10.613eV)
    -0.3931031E+00 ( -10.697eV)    -0.3921897E+00 ( -10.672eV)
    -0.3941200E+00 ( -10.725eV)    -0.3933507E+00 ( -10.704eV)
    -0.3943638E+00 ( -10.731eV)    -0.3936521E+00 ( -10.712eV)
    -0.3947263E+00 ( -10.741eV)    -0.3943014E+00 ( -10.730eV)
    -0.3953370E+00 ( -10.758eV)    -0.3947923E+00 ( -10.743eV)
    -0.3957363E+00 ( -10.769eV)    -0.3956662E+00 ( -10.767eV)
    -0.3964773E+00 ( -10.789eV)    -0.3958868E+00 ( -10.773eV)
    -0.3967741E+00 ( -10.797eV)    -0.3971008E+00 ( -10.806eV)
    -0.3987009E+00 ( -10.849eV)    -0.3977941E+00 ( -10.825eV)
    -0.3990832E+00 ( -10.860eV)    -0.3987926E+00 ( -10.852eV)
    -0.4001161E+00 ( -10.888eV)    -0.3999265E+00 ( -10.883eV)
    -0.4009846E+00 ( -10.911eV)    -0.4005680E+00 ( -10.900eV)
    -0.4016717E+00 ( -10.930eV)    -0.4016244E+00 ( -10.929eV)
    -0.4037068E+00 ( -10.986eV)    -0.4035705E+00 ( -10.982eV)
    -0.4046577E+00 ( -11.011eV)    -0.4043300E+00 ( -11.002eV)
    -0.4072975E+00 ( -11.083eV)    -0.4070960E+00 ( -11.078eV)
    -0.4486821E+00 ( -12.209eV)    -0.4482131E+00 ( -12.197eV)
    -0.4496748E+00 ( -12.236eV)    -0.4489827E+00 ( -12.218eV)
    -0.4504123E+00 ( -12.256eV)    -0.4500169E+00 ( -12.246eV)
    -0.4507284E+00 ( -12.265eV)    -0.4505629E+00 ( -12.261eV)
    -0.4512507E+00 ( -12.279eV)    -0.4509047E+00 ( -12.270eV)
    -0.4526632E+00 ( -12.318eV)    -0.4523712E+00 ( -12.310eV)
    -0.4529274E+00 ( -12.325eV)    -0.4528295E+00 ( -12.322eV)
    -0.4541318E+00 ( -12.358eV)    -0.4535145E+00 ( -12.341eV)
    -0.4556812E+00 ( -12.400eV)    -0.4554266E+00 ( -12.393eV)
    -0.4562222E+00 ( -12.415eV)    -0.4559421E+00 ( -12.407eV)
    -0.4567878E+00 ( -12.430eV)    -0.4564419E+00 ( -12.421eV)
    -0.4576709E+00 ( -12.454eV)    -0.4574829E+00 ( -12.449eV)
    -0.4584886E+00 ( -12.476eV)    -0.4581537E+00 ( -12.467eV)
    -0.4587125E+00 ( -12.482eV)    -0.4585126E+00 ( -12.477eV)
    -0.4591202E+00 ( -12.493eV)    -0.4588117E+00 ( -12.485eV)
    -0.4595380E+00 ( -12.505eV)    -0.4591876E+00 ( -12.495eV)
    -0.4626009E+00 ( -12.588eV)    -0.4623485E+00 ( -12.581eV)
    -0.4631717E+00 ( -12.604eV)    -0.4628283E+00 ( -12.594eV)
    -0.4663044E+00 ( -12.689eV)    -0.4660703E+00 ( -12.683eV)
    -0.4667679E+00 ( -12.702eV)    -0.4664286E+00 ( -12.692eV)
    -0.4676903E+00 ( -12.727eV)    -0.4674555E+00 ( -12.720eV)
    -0.4685332E+00 ( -12.750eV)    -0.4685650E+00 ( -12.750eV)
    -0.4753807E+00 ( -12.936eV)    -0.4751444E+00 ( -12.929eV)
    -0.4842320E+00 ( -13.177eV)    -0.4839324E+00 ( -13.169eV)
    -0.5717797E+00 ( -15.559eV)    -0.5716094E+00 ( -15.554eV)
    -0.5795898E+00 ( -15.772eV)    -0.5794911E+00 ( -15.769eV)
    -0.5800821E+00 ( -15.785eV)    -0.5799876E+00 ( -15.782eV)
    -0.2291817E+01 ( -62.364eV)    -0.2291760E+01 ( -62.362eV)

 Total PSPW energy     :  -0.1961488493E+04


=== Spin Contamination ===

 <Sexact^2> =    8.7500000000000000     
 <S^2>      =    25.811307455757941     



== Center of Charge ==

spin up     (    0.1009,   -0.0801,    0.0326 )
spin down   (    0.0643,   -0.0788,    0.0308 )
     total  (    0.0828,   -0.0795,    0.0317 )
ionic       (    0.2192,   -0.2352,    0.2694 )


== Molecular Dipole wrt Center of Mass ==

mu   =  (   71.1014,  -81.1458,  123.8188 ) au
|mu| =   164.2289 au,     417.4042 Debye

 output psi filename:./perm/goethite_Lu82.movecs

 Writing Crystallographic Information File:./perm/goethite_Lu82_paw.cif
   - cell not shifted (nwpw:cif_shift_cell .false.)


== Timing ==

cputime in seconds
  prologue    :   0.283692E+02
  main loop   :   0.567200E+04
  epilogue    :   0.567794E+01
  total       :   0.570605E+04
  cputime/step:   0.896051E+01       (     633 evalulations,     100 linesearches)


Time spent doing                        total          step       percent
  total time                 :   0.570605E+04  0.901430E+01       100.0 %
  i/o time                   :   0.242260E+02  0.382718E-01         0.4 %
  FFTs                       :   0.156095E+02  0.246596E-01         0.3 %
  dot products               :   0.196279E+04  0.310077E+01        34.4 %
  geodesic                   :   0.198976E+04  0.314338E+01        34.9 %
  ffm_dgemm                  :   0.111171E+03  0.175625E+00         1.9 %
  fmf_dgemm                  :   0.587060E+03  0.927424E+00        10.3 %
  mmm_dgemm                  :   0.257061E+02  0.406100E-01         0.5 %
  m_diagonalize              :   0.455581E+01  0.719717E-02         0.1 %
    - m_tredq                :   0.172859E+00  0.273079E-03         0.0 %
  exchange correlation       :   0.280657E+02  0.443376E-01         0.5 %
  local pseudopotentials     :   0.494410E-01  0.781058E-04         0.0 %
  non-local pseudopotentials :   0.255564E+04  0.403734E+01        44.8 %
  hartree potentials         :   0.164339E+00  0.259620E-03         0.0 %
  ion-ion interaction        :   0.219854E+02  0.347321E-01         0.4 %
  structure factors          :   0.249547E+01  0.394229E-02         0.0 %
  phase factors              :   0.146000E-03  0.230648E-06         0.0 %
  masking and packing        :   0.168162E+03  0.265659E+00         2.9 %
  queue fft                  :   0.721325E+03  0.113953E+01        12.6 %
  queue fft (serial)         :   0.312169E+03  0.493157E+00         5.5 %
  queue fft (message passing):   0.392182E+03  0.619561E+00         6.9 %
  paw gaussian integrals     :   0.426000E-03  0.672986E-06         0.0 %
  paw atomic coulomb         :   0.202984E+02  0.320669E-01         0.4 %
  paw atomic xc              :   0.464522E+01  0.733842E-02         0.1 %
  paw gen dEmult/dQlm        :   0.105356E-01  0.166439E-04         0.0 %
  paw gen dElocal/dQlm       :   0.117160E-01  0.185087E-04         0.0 %
  paw cmp operations         :   0.117160E-01  0.185087E-04         0.0 %
  nwpw_ugauss                :   0.100300E-05  0.158452E-08         0.0 %
  nwpw_gaunt                 :   0.448727E+01  0.708890E-02         0.1 %
  non-local psp FFM          :   0.560334E+03  0.885204E+00         9.8 %
  non-local psp FMF          :   0.170634E+04  0.269563E+01        29.9 %
  non-local psp FFM A        :   0.155713E+01  0.245993E-02         0.0 %
  non-local psp FFM B        :   0.551273E+03  0.870889E+00         9.7 %

     >>>  JOB COMPLETED     AT Tue Jan 24 13:18:06 2023  <<<

 Task  times  cpu:    19053.1s     wall:    19053.1s


                                NWChem Input Module
                                -------------------


 Summary of allocated global arrays
-----------------------------------
  No active global arrays


MA_summarize_allocated_blocks: starting scan ...
MA_summarize_allocated_blocks: scan completed: 0 heap blocks, 0 stack blocks
MA usage statistics:

	allocation statistics:
					      heap	     stack
					      ----	     -----
	current number of blocks	         0	         0
	maximum number of blocks	       394	        19
	current total bytes		         0	         0
	maximum total bytes		1074809184	  86923048
	maximum total K-bytes		   1074810	     86924
	maximum total M-bytes		      1075	        87


                                     CITATION
                                     --------
                Please cite the following reference when publishing
                           results obtained with NWChem:

          E. Apra, E. J. Bylaska, W. A. de Jong, N. Govind, K. Kowalski,
       T. P. Straatsma, M. Valiev, H. J. J. van Dam, Y. Alexeev, J. Anchell,
       V. Anisimov, F. W. Aquino, R. Atta-Fynn, J. Autschbach, N. P. Bauman,
     J. C. Becca, D. E. Bernholdt, K. Bhaskaran-Nair, S. Bogatko, P. Borowski,
         J. Boschen, J. Brabec, A. Bruner, E. Cauet, Y. Chen, G. N. Chuev,
      C. J. Cramer, J. Daily, M. J. O. Deegan, T. H. Dunning Jr., M. Dupuis,
   K. G. Dyall, G. I. Fann, S. A. Fischer, A. Fonari, H. Fruchtl, L. Gagliardi,
      J. Garza, N. Gawande, S. Ghosh, K. Glaesemann, A. W. Gotz, J. Hammond,
       V. Helms, E. D. Hermes, K. Hirao, S. Hirata, M. Jacquelin, L. Jensen,
   B. G. Johnson, H. Jonsson, R. A. Kendall, M. Klemm, R. Kobayashi, V. Konkov,
      S. Krishnamoorthy, M. Krishnan, Z. Lin, R. D. Lins, R. J. Littlefield,
      A. J. Logsdail, K. Lopata, W. Ma, A. V. Marenich, J. Martin del Campo,
   D. Mejia-Rodriguez, J. E. Moore, J. M. Mullin, T. Nakajima, D. R. Nascimento,
    J. A. Nichols, P. J. Nichols, J. Nieplocha, A. Otero-de-la-Roza, B. Palmer,
    A. Panyala, T. Pirojsirikul, B. Peng, R. Peverati, J. Pittner, L. Pollack,
   R. M. Richard, P. Sadayappan, G. C. Schatz, W. A. Shelton, D. W. Silverstein,
   D. M. A. Smith, T. A. Soares, D. Song, M. Swart, H. L. Taylor, G. S. Thomas,
            V. Tipparaju, D. G. Truhlar, K. Tsemekhman, T. Van Voorhis,
      A. Vazquez-Mayagoitia, P. Verma, O. Villa, A. Vishnu, K. D. Vogiatzis,
        D. Wang, J. H. Weare, M. J. Williamson, T. L. Windus, K. Wolinski,
        A. T. Wong, Q. Wu, C. Yang, Q. Yu, M. Zacharias, Z. Zhang, Y. Zhao,
                                and R. J. Harrison
                        "NWChem: Past, present, and future
                         J. Chem. Phys. 152, 184102 (2020)
                               doi:10.1063/5.0004997

                                      AUTHORS
                                      -------
  E. Apra, E. J. Bylaska, N. Govind, K. Kowalski, M. Valiev, D. Mejia-Rodriguez,
       A. Kunitsa, N. P. Bauman, A. Panyala, W. A. de Jong, T. P. Straatsma,
   H. J. J. van Dam, D. Wang, T. L. Windus, J. Hammond, J. Autschbach, A. Woods,
    K. Bhaskaran-Nair, J. Brabec, K. Lopata, S. A. Fischer, S. Krishnamoorthy,
     M. Jacquelin, W. Ma, M. Klemm, O. Villa, Y. Chen, V. Anisimov, F. Aquino,
     S. Hirata, M. T. Hackler, E. Hermes, L. Jensen, J. E. Moore, J. C. Becca,
      V. Konjkov, T. Risthaus, M. Malagoli, A. Marenich, A. Otero-de-la-Roza,
        J. Mullin, P. Nichols, R. Peverati, J. Pittner, Y. Zhao, P.-D. Fan,
        A. Fonari, M. J. Williamson, R. J. Harrison, J. R. Rehr, M. Dupuis,
     D. Silverstein, D. M. A. Smith, J. Nieplocha, V. Tipparaju, M. Krishnan,
     B. E. Van Kuiken, A. Vazquez-Mayagoitia, M. Swart, Q. Wu, T. Van Voorhis,
     A. A. Auer, M. Nooijen, L. D. Crosby, E. Brown, G. Cisneros, G. I. Fann,
   H. Fruchtl, J. Garza, K. Hirao, R. A. Kendall, J. A. Nichols, K. Tsemekhman,
    K. Wolinski, J. Anchell, D. E. Bernholdt, P. Borowski, T. Clark, D. Clerc,
   H. Dachsel, M. J. O. Deegan, K. Dyall, D. Elwood, E. Glendening, M. Gutowski,
   A. C. Hess, J. Jaffe, B. G. Johnson, J. Ju, R. Kobayashi, R. Kutteh, Z. Lin,
   R. Littlefield, X. Long, B. Meng, T. Nakajima, S. Niu, L. Pollack, M. Rosing,
   K. Glaesemann, G. Sandrone, M. Stave, H. Taylor, G. Thomas, J. H. van Lenthe,
                               A. T. Wong, Z. Zhang.

 Total times  cpu:    19053.2s     wall:    19053.2s
