 argument  1 = lu-goethite.nw
                                         
                                         


             Northwest Computational Chemistry Package (NWChem) 7.2.0
             --------------------------------------------------------


                    Environmental Molecular Sciences Laboratory
                       Pacific Northwest National Laboratory
                                Richland, WA 99352

                              Copyright (c) 1994-2022
                       Pacific Northwest National Laboratory
                            Battelle Memorial Institute

             NWChem is an open-source computational chemistry package
                        distributed under the terms of the
                      Educational Community License (ECL) 2.0
             A copy of the license is included with this distribution
                              in the LICENSE.TXT file

                                  ACKNOWLEDGMENT
                                  --------------

            This software and its documentation were developed at the
            EMSL at Pacific Northwest National Laboratory, a multiprogram
            national laboratory, operated for the U.S. Department of Energy
            by Battelle under Contract Number DE-AC05-76RL01830. Support
            for this work was provided by the Department of Energy Office
            of Biological and Environmental Research, Office of Basic
            Energy Sciences, and the Office of Advanced Scientific Computing.


           Job information
           ---------------

    hostname        = Erics-MacBook-Pro.local
    program         = nwchem
    date            = Thu Jan 19 22:39:04 2023

    compiled        = Thu_Jan_19_22:34:55_2023
    source          = /Users/bylaska/nwchem-releases/nwchem
    nwchem branch   = 7.2.0
    nwchem revision = v7.2.0-beta1-269-gc798240996
    ga revision     = 5.8.0
    use scalapack   = F
    input           = lu-goethite.nw
    prefix          = goethite_Lu82.
    data base       = ./perm/goethite_Lu82.db
    status          = startup
    nproc           =        8
    time left       =     -1s



           Memory information
           ------------------

    heap     =   78643196 doubles =    600.0 Mbytes
    stack    =   78643201 doubles =    600.0 Mbytes
    global   =    1310720 doubles =     10.0 Mbytes (distinct from heap & stack)
    total    =  158597117 doubles =   1210.0 Mbytes
    verify   = yes
    hardfail = no 


           Directory information
           ---------------------

  0 permanent = ./perm
  0 scratch   = ./perm




                                NWChem Input Module
                                -------------------


                     goethite replace Fe82 with Lu and PAW psp
                     -----------------------------------------

  !!!!!!!!!  geom_3d NEEDS TESTING !!!!!!!!!! 


                             Geometry "geometry" -> ""
                             -------------------------

 Output coordinates in angstroms (scale by  1.889725989 to convert to a.u.)

  No.       Tag          Charge          X              Y              Z
 ---- ---------------- ---------- -------------- -------------- --------------
    1 Fe                  26.0000     1.47713722     6.86640000     2.06867670
    2 Fe                  26.0000     3.55530677     8.39232465     8.97054596
    3 Fe                  26.0000     8.58865677     8.39232465     7.13662904
    4 Fe                  26.0000     6.51048722     6.86640000     0.23234830
    5 H                    1.0000     9.20880576     6.86640000     0.45223425
    6 H                    1.0000     5.89166704     8.39504374     7.35314629
    7 H                    1.0000     0.85831704     8.39504374     8.75402871
    8 H                    1.0000     4.17545576     6.86640000     1.84879075
    9 O                    8.0000     8.08609691     6.86640000     8.32717017
   10 O                    8.0000     7.01452689     8.39278241     1.42294466
   11 O                    8.0000     1.98117689     8.39278241     0.87808034
   12 O                    8.0000     3.05274691     6.86640000     7.78000483
   13 O                    8.0000     9.52917849     6.86640000     1.37043527
   14 O                    8.0000     5.57097218     8.39574869     8.27121844
   15 O                    8.0000     0.53762218     8.39573954     7.83595656
   16 O                    8.0000     4.49582849     6.86640000     0.93058973
   17 Fe                  26.0000     1.47804323     0.76287535     2.06747096
   18 Fe                  26.0000     3.55621278     2.28880000     8.97175170
   19 Fe                  26.0000     8.58956278     2.28880000     7.13542330
   20 Fe                  26.0000     6.51139323     0.76287535     0.23355404
   21 H                    1.0000     9.20838296     0.76015626     0.45007129
   22 H                    1.0000     5.89124424     2.28880000     7.35530925
   23 H                    1.0000     0.85789424     2.28880000     8.75186575
   24 H                    1.0000     4.17503296     0.76015626     1.85095371
   25 O                    8.0000     8.08552311     0.76241759     8.32601966
   26 O                    8.0000     7.01395309     2.28880000     1.42409517
   27 O                    8.0000     1.98060309     2.28880000     0.87692983
   28 O                    8.0000     3.05217311     0.76241759     7.78115534
   29 O                    8.0000     9.52907782     0.75946046     1.36814344
   30 O                    8.0000     5.57087151     2.28880000     8.27351027
   31 O                    8.0000     0.53752151     2.28880000     7.83366473
   32 O                    8.0000     4.49572782     0.75945131     0.93288156
   33 Fe                  26.0000     1.47804323     3.81472465     2.06747096
   34 Fe                  26.0000     3.55530677     5.34047535     8.97054596
   35 Fe                  26.0000     8.58865677     5.34047535     7.13662904
   36 Fe                  26.0000     6.51139323     3.81472465     0.23355404
   37 H                    1.0000     9.20838296     3.81744374     0.45007129
   38 H                    1.0000     5.89166704     5.33775626     7.35314629
   39 H                    1.0000     0.85831704     5.33775626     8.75402871
   40 H                    1.0000     4.17503296     3.81744374     1.85095371
   41 O                    8.0000     8.08552311     3.81518241     8.32601966
   42 O                    8.0000     7.01452689     5.34001759     1.42294466
   43 O                    8.0000     1.98117689     5.34001759     0.87808034
   44 O                    8.0000     3.05217311     3.81518241     7.78115534
   45 O                    8.0000     9.52907782     3.81814869     1.36814344
   46 O                    8.0000     5.57097218     5.33705131     8.27121844
   47 O                    8.0000     0.53762218     5.33705131     7.83595656
   48 O                    8.0000     4.49572782     3.81813954     0.93288156
   49 Fe                  26.0000     1.47713722     6.86640000     6.67072670
   50 Fe                  26.0000     3.55530677     8.39232465     4.36849596
   51 Fe                  26.0000     8.58865677     8.39232465     2.53457904
   52 Fe                  26.0000     6.51048722     6.86640000     4.83439830
   53 H                    1.0000     9.20880576     6.86640000     5.05428425
   54 H                    1.0000     5.89166704     8.39504374     2.75109629
   55 H                    1.0000     0.85831704     8.39504374     4.15197871
   56 H                    1.0000     4.17545576     6.86640000     6.45084075
   57 O                    8.0000     8.08609691     6.86640000     3.72512017
   58 O                    8.0000     7.01452689     8.39278241     6.02499466
   59 O                    8.0000     1.98117689     8.39278241     5.48013034
   60 O                    8.0000     3.05274691     6.86640000     3.17795483
   61 O                    8.0000     9.52917849     6.86640000     5.97248527
   62 O                    8.0000     5.57097218     8.39574869     3.66916844
   63 O                    8.0000     0.53762218     8.39573954     3.23390656
   64 O                    8.0000     4.49582849     6.86640000     5.53263973
   65 Fe                  26.0000     1.47804323     0.76287535     6.66952096
   66 Fe                  26.0000     3.55621278     2.28880000     4.36970170
   67 Fe                  26.0000     8.58956278     2.28880000     2.53337330
   68 Fe                  26.0000     6.51139323     0.76287535     4.83560404
   69 H                    1.0000     9.20838296     0.76015626     5.05212129
   70 H                    1.0000     5.89124424     2.28880000     2.75325925
   71 H                    1.0000     0.85789424     2.28880000     4.14981575
   72 H                    1.0000     4.17503296     0.76015626     6.45300371
   73 O                    8.0000     8.08552311     0.76241759     3.72396966
   74 O                    8.0000     7.01395309     2.28880000     6.02614517
   75 O                    8.0000     1.98060309     2.28880000     5.47897983
   76 O                    8.0000     3.05217311     0.76241759     3.17910534
   77 O                    8.0000     9.52907782     0.75946046     5.97019344
   78 O                    8.0000     5.57087151     2.28880000     3.67146027
   79 O                    8.0000     0.53752151     2.28880000     3.23161473
   80 O                    8.0000     4.49572782     0.75945131     5.53493156
   81 Fe                  26.0000     1.47804323     3.81472465     6.66952096
   82 Lu                  71.0000     3.55530677     5.34047535     4.36849596
   83 Fe                  26.0000     8.58865677     5.34047535     2.53457904
   84 Fe                  26.0000     6.51139323     3.81472465     4.83560404
   85 H                    1.0000     9.20838296     3.81744374     5.05212129
   86 H                    1.0000     5.89166704     5.33775626     2.75109629
   87 H                    1.0000     0.85831704     5.33775626     4.15197871
   88 H                    1.0000     4.17503296     3.81744374     6.45300371
   89 O                    8.0000     8.08552311     3.81518241     3.72396966
   90 O                    8.0000     7.01452689     5.34001759     6.02499466
   91 O                    8.0000     1.98117689     5.34001759     5.48013034
   92 O                    8.0000     3.05217311     3.81518241     3.17910534
   93 O                    8.0000     9.52907782     3.81814869     5.97019344
   94 O                    8.0000     5.57097218     5.33705131     3.66916844
   95 O                    8.0000     0.53762218     5.33705131     3.23390656
   96 O                    8.0000     4.49572782     3.81813954     5.53493156

      Lattice Parameters 
      ------------------ 

      lattice vectors in angstroms (scale by  1.889725989 to convert to a.u.)

      a1=<  10.067   0.000   0.000 >
      a2=<   0.000   9.155   0.000 >
      a3=<   0.000   0.000   9.204 >
      a=      10.067 b=      9.155 c=       9.204
      alpha=  90.000 beta=  90.000 gamma=  90.000
      omega=   848.3

      reciprocal lattice vectors in a.u.

      b1=<   0.330   0.000  -0.000 >
      b2=<  -0.000   0.363  -0.000 >
      b3=<   0.000   0.000   0.361 >

      Atomic Mass 
      ----------- 

      Fe                55.934900
      H                  1.007825
      O                 15.994910
      Lu               174.940900



            XYZ format geometry
            -------------------
    96
 geometry
 Fe                    1.47713722     6.86640000     2.06867670
 Fe                    3.55530677     8.39232465     8.97054596
 Fe                    8.58865677     8.39232465     7.13662904
 Fe                    6.51048722     6.86640000     0.23234830
 H                     9.20880576     6.86640000     0.45223425
 H                     5.89166704     8.39504374     7.35314629
 H                     0.85831704     8.39504374     8.75402871
 H                     4.17545576     6.86640000     1.84879075
 O                     8.08609691     6.86640000     8.32717017
 O                     7.01452689     8.39278241     1.42294466
 O                     1.98117689     8.39278241     0.87808034
 O                     3.05274691     6.86640000     7.78000483
 O                     9.52917849     6.86640000     1.37043527
 O                     5.57097218     8.39574869     8.27121844
 O                     0.53762218     8.39573954     7.83595656
 O                     4.49582849     6.86640000     0.93058973
 Fe                    1.47804323     0.76287535     2.06747096
 Fe                    3.55621278     2.28880000     8.97175170
 Fe                    8.58956278     2.28880000     7.13542330
 Fe                    6.51139323     0.76287535     0.23355404
 H                     9.20838296     0.76015626     0.45007129
 H                     5.89124424     2.28880000     7.35530925
 H                     0.85789424     2.28880000     8.75186575
 H                     4.17503296     0.76015626     1.85095371
 O                     8.08552311     0.76241759     8.32601966
 O                     7.01395309     2.28880000     1.42409517
 O                     1.98060309     2.28880000     0.87692983
 O                     3.05217311     0.76241759     7.78115534
 O                     9.52907782     0.75946046     1.36814344
 O                     5.57087151     2.28880000     8.27351027
 O                     0.53752151     2.28880000     7.83366473
 O                     4.49572782     0.75945131     0.93288156
 Fe                    1.47804323     3.81472465     2.06747096
 Fe                    3.55530677     5.34047535     8.97054596
 Fe                    8.58865677     5.34047535     7.13662904
 Fe                    6.51139323     3.81472465     0.23355404
 H                     9.20838296     3.81744374     0.45007129
 H                     5.89166704     5.33775626     7.35314629
 H                     0.85831704     5.33775626     8.75402871
 H                     4.17503296     3.81744374     1.85095371
 O                     8.08552311     3.81518241     8.32601966
 O                     7.01452689     5.34001759     1.42294466
 O                     1.98117689     5.34001759     0.87808034
 O                     3.05217311     3.81518241     7.78115534
 O                     9.52907782     3.81814869     1.36814344
 O                     5.57097218     5.33705131     8.27121844
 O                     0.53762218     5.33705131     7.83595656
 O                     4.49572782     3.81813954     0.93288156
 Fe                    1.47713722     6.86640000     6.67072670
 Fe                    3.55530677     8.39232465     4.36849596
 Fe                    8.58865677     8.39232465     2.53457904
 Fe                    6.51048722     6.86640000     4.83439830
 H                     9.20880576     6.86640000     5.05428425
 H                     5.89166704     8.39504374     2.75109629
 H                     0.85831704     8.39504374     4.15197871
 H                     4.17545576     6.86640000     6.45084075
 O                     8.08609691     6.86640000     3.72512017
 O                     7.01452689     8.39278241     6.02499466
 O                     1.98117689     8.39278241     5.48013034
 O                     3.05274691     6.86640000     3.17795483
 O                     9.52917849     6.86640000     5.97248527
 O                     5.57097218     8.39574869     3.66916844
 O                     0.53762218     8.39573954     3.23390656
 O                     4.49582849     6.86640000     5.53263973
 Fe                    1.47804323     0.76287535     6.66952096
 Fe                    3.55621278     2.28880000     4.36970170
 Fe                    8.58956278     2.28880000     2.53337330
 Fe                    6.51139323     0.76287535     4.83560404
 H                     9.20838296     0.76015626     5.05212129
 H                     5.89124424     2.28880000     2.75325925
 H                     0.85789424     2.28880000     4.14981575
 H                     4.17503296     0.76015626     6.45300371
 O                     8.08552311     0.76241759     3.72396966
 O                     7.01395309     2.28880000     6.02614517
 O                     1.98060309     2.28880000     5.47897983
 O                     3.05217311     0.76241759     3.17910534
 O                     9.52907782     0.75946046     5.97019344
 O                     5.57087151     2.28880000     3.67146027
 O                     0.53752151     2.28880000     3.23161473
 O                     4.49572782     0.75945131     5.53493156
 Fe                    1.47804323     3.81472465     6.66952096
 Lu                    3.55530677     5.34047535     4.36849596
 Fe                    8.58865677     5.34047535     2.53457904
 Fe                    6.51139323     3.81472465     4.83560404
 H                     9.20838296     3.81744374     5.05212129
 H                     5.89166704     5.33775626     2.75109629
 H                     0.85831704     5.33775626     4.15197871
 H                     4.17503296     3.81744374     6.45300371
 O                     8.08552311     3.81518241     3.72396966
 O                     7.01452689     5.34001759     6.02499466
 O                     1.98117689     5.34001759     5.48013034
 O                     3.05217311     3.81518241     3.17910534
 O                     9.52907782     3.81814869     5.97019344
 O                     5.57097218     5.33705131     3.66916844
 O                     0.53762218     5.33705131     3.23390656
 O                     4.49572782     3.81813954     5.53493156

 ==============================================================================
                                internuclear distances
 ------------------------------------------------------------------------------
       center one      |      center two      | atomic units |  angstroms
 ------------------------------------------------------------------------------
    9 O                |   3 Fe               |     3.77870  |     1.99960
   10 O                |   4 Fe               |     3.78012  |     2.00035
   11 O                |   1 Fe               |     3.78012  |     2.00035
   12 O                |   2 Fe               |     3.77870  |     1.99960
   13 O                |   5 H                |     1.83773  |     0.97249
   14 O                |   2 Fe               |     4.03180  |     2.13354
   14 O                |   6 H                |     1.83771  |     0.97247
   15 O                |   7 H                |     1.83771  |     0.97247
   16 O                |   4 Fe               |     4.02932  |     2.13223
   16 O                |   8 H                |     1.83773  |     0.97249
   25 O                |  19 Fe               |     3.78012  |     2.00035
   26 O                |  20 Fe               |     3.77870  |     1.99960
   27 O                |  17 Fe               |     3.77870  |     1.99960
   28 O                |  18 Fe               |     3.78012  |     2.00035
   29 O                |  21 H                |     1.83771  |     0.97247
   30 O                |  18 Fe               |     4.02932  |     2.13223
   30 O                |  22 H                |     1.83773  |     0.97249
   31 O                |  23 H                |     1.83773  |     0.97249
   32 O                |  20 Fe               |     4.03180  |     2.13354
   32 O                |  24 H                |     1.83771  |     0.97247
   33 Fe               |  27 O                |     3.77870  |     1.99960
   34 Fe               |  12 O                |     3.77870  |     1.99960
   35 Fe               |   9 O                |     3.77870  |     1.99960
   36 Fe               |  26 O                |     3.77870  |     1.99960
   41 O                |  19 Fe               |     3.78012  |     2.00035
   41 O                |  35 Fe               |     3.77676  |     1.99858
   42 O                |   4 Fe               |     3.78012  |     2.00035
   42 O                |  36 Fe               |     3.77676  |     1.99858
   43 O                |   1 Fe               |     3.78012  |     2.00035
   43 O                |  33 Fe               |     3.77676  |     1.99858
   44 O                |  18 Fe               |     3.78012  |     2.00035
   44 O                |  34 Fe               |     3.77676  |     1.99858
   45 O                |  37 H                |     1.83771  |     0.97247
   46 O                |  34 Fe               |     4.03180  |     2.13354
   46 O                |  38 H                |     1.83771  |     0.97247
   47 O                |  39 H                |     1.83771  |     0.97247
   48 O                |  36 Fe               |     4.03180  |     2.13354
   48 O                |  40 H                |     1.83771  |     0.97247
   49 Fe               |  12 O                |     3.64136  |     1.92693
   49 Fe               |  15 O                |     4.04389  |     2.13994
   49 Fe               |  47 O                |     4.04391  |     2.13994
   51 Fe               |  10 O                |     3.64164  |     1.92707
   51 Fe               |  13 O                |     4.03900  |     2.13735
   57 O                |  51 Fe               |     3.77870  |     1.99960
   57 O                |  52 Fe               |     3.64136  |     1.92693
   58 O                |   3 Fe               |     3.64164  |     1.92707
   58 O                |  52 Fe               |     3.78012  |     2.00035
   59 O                |  49 Fe               |     3.78012  |     2.00035
   59 O                |  50 Fe               |     3.64164  |     1.92707
   60 O                |   1 Fe               |     3.64136  |     1.92693
   60 O                |  50 Fe               |     3.77870  |     1.99960
   61 O                |   3 Fe               |     4.03900  |     2.13735
   61 O                |  35 Fe               |     4.03900  |     2.13735
   61 O                |  53 H                |     1.83773  |     0.97249
   62 O                |  50 Fe               |     4.03180  |     2.13354
   62 O                |  52 Fe               |     4.04391  |     2.13994
   62 O                |  54 H                |     1.83771  |     0.97247
   63 O                |   1 Fe               |     4.04389  |     2.13994
   63 O                |  55 H                |     1.83771  |     0.97247
   64 O                |  50 Fe               |     4.03900  |     2.13735
   64 O                |  52 Fe               |     4.02932  |     2.13223
   64 O                |  56 H                |     1.83773  |     0.97249
   65 Fe               |  28 O                |     3.64164  |     1.92707
   65 Fe               |  31 O                |     4.03900  |     2.13735
   67 Fe               |  26 O                |     3.64136  |     1.92693
   67 Fe               |  29 O                |     4.04389  |     2.13994
   67 Fe               |  45 O                |     4.04391  |     2.13994
   73 O                |  67 Fe               |     3.78012  |     2.00035
   73 O                |  68 Fe               |     3.64164  |     1.92707
   74 O                |  19 Fe               |     3.64136  |     1.92693
   74 O                |  68 Fe               |     3.77870  |     1.99960
   75 O                |  65 Fe               |     3.77870  |     1.99960
   75 O                |  66 Fe               |     3.64136  |     1.92693
   76 O                |  17 Fe               |     3.64164  |     1.92707
   76 O                |  66 Fe               |     3.78012  |     2.00035
   77 O                |  19 Fe               |     4.04389  |     2.13994
   77 O                |  69 H                |     1.83771  |     0.97247
   78 O                |  66 Fe               |     4.02932  |     2.13223
   78 O                |  68 Fe               |     4.03900  |     2.13735
   78 O                |  70 H                |     1.83773  |     0.97249
   79 O                |  17 Fe               |     4.03900  |     2.13735
   79 O                |  33 Fe               |     4.03900  |     2.13735
   79 O                |  71 H                |     1.83773  |     0.97249
   80 O                |  66 Fe               |     4.04391  |     2.13994
   80 O                |  68 Fe               |     4.03180  |     2.13354
   80 O                |  72 H                |     1.83771  |     0.97247
   81 Fe               |  31 O                |     4.03900  |     2.13735
   81 Fe               |  44 O                |     3.64164  |     1.92707
   81 Fe               |  47 O                |     4.03643  |     2.13599
   81 Fe               |  75 O                |     3.77870  |     1.99960
   82 Lu               |   1 Fe               |     6.52883  |     3.45491
   82 Lu               |  33 Fe               |     6.52918  |     3.45509
   82 Lu               |  49 Fe               |     6.53187  |     3.45652
   82 Lu               |  50 Fe               |     5.76716  |     3.05185
   82 Lu               |  52 Fe               |     6.34639  |     3.35836
   82 Lu               |  60 O                |     3.77870  |     1.99960
   82 Lu               |  64 O                |     4.03900  |     2.13735
   82 Lu               |  66 Fe               |     5.76683  |     3.05168
   82 Lu               |  81 Fe               |     6.52918  |     3.45509
   83 Fe               |  13 O                |     4.03900  |     2.13735
   83 Fe               |  42 O                |     3.64164  |     1.92707
   83 Fe               |  45 O                |     4.03643  |     2.13599
   83 Fe               |  57 O                |     3.77870  |     1.99960
   84 Fe               |  74 O                |     3.77870  |     1.99960
   84 Fe               |  78 O                |     4.03900  |     2.13735
   84 Fe               |  82 Lu               |     6.34806  |     3.35925
   89 O                |  67 Fe               |     3.78012  |     2.00035
   89 O                |  83 Fe               |     3.77676  |     1.99858
   89 O                |  84 Fe               |     3.64164  |     1.92707
   90 O                |  35 Fe               |     3.64164  |     1.92707
   90 O                |  52 Fe               |     3.78012  |     2.00035
   90 O                |  84 Fe               |     3.77676  |     1.99858
   91 O                |  49 Fe               |     3.78012  |     2.00035
   91 O                |  81 Fe               |     3.77676  |     1.99858
   91 O                |  82 Lu               |     3.64164  |     1.92707
   92 O                |  33 Fe               |     3.64164  |     1.92707
   92 O                |  66 Fe               |     3.78012  |     2.00035
   92 O                |  82 Lu               |     3.77676  |     1.99858
   93 O                |  19 Fe               |     4.04391  |     2.13994
   93 O                |  35 Fe               |     4.03643  |     2.13599
   93 O                |  85 H                |     1.83771  |     0.97247
   94 O                |  52 Fe               |     4.04391  |     2.13994
   94 O                |  82 Lu               |     4.03180  |     2.13354
   94 O                |  84 Fe               |     4.03643  |     2.13599
   94 O                |  86 H                |     1.83771  |     0.97247
   95 O                |   1 Fe               |     4.04391  |     2.13994
   95 O                |  33 Fe               |     4.03643  |     2.13599
   95 O                |  87 H                |     1.83771  |     0.97247
   96 O                |  66 Fe               |     4.04389  |     2.13994
   96 O                |  82 Lu               |     4.03644  |     2.13599
   96 O                |  84 Fe               |     4.03180  |     2.13354
   96 O                |  88 H                |     1.83771  |     0.97247
 ------------------------------------------------------------------------------
                         number of included internuclear distances:        132
 ==============================================================================



 ==============================================================================
                                 internuclear angles
 ------------------------------------------------------------------------------
        center 1       |       center 2       |       center 3       |  degrees
 ------------------------------------------------------------------------------
   11 O                |   1 Fe               |  43 O                |    99.47
   11 O                |   1 Fe               |  60 O                |    97.85
   11 O                |   1 Fe               |  63 O                |    83.65
   11 O                |   1 Fe               |  82 Lu               |   125.57
   11 O                |   1 Fe               |  95 O                |   168.54
   43 O                |   1 Fe               |  60 O                |    97.85
   43 O                |   1 Fe               |  63 O                |   168.54
   43 O                |   1 Fe               |  82 Lu               |    84.70
   43 O                |   1 Fe               |  95 O                |    83.65
   60 O                |   1 Fe               |  63 O                |    92.61
    1 Fe               |  60 O                |  82 Lu               |   123.25
   60 O                |   1 Fe               |  95 O                |    92.61
   63 O                |   1 Fe               |  82 Lu               |   102.55
   63 O                |   1 Fe               |  95 O                |    91.23
   82 Lu               |   1 Fe               |  95 O                |    65.54
   12 O                |   2 Fe               |  14 O                |    92.49
    9 O                |   3 Fe               |  58 O                |    97.95
    9 O                |   3 Fe               |  61 O                |    83.69
   58 O                |   3 Fe               |  61 O                |    92.60
   10 O                |   4 Fe               |  16 O                |    92.47
   10 O                |   4 Fe               |  42 O                |    99.47
   16 O                |   4 Fe               |  42 O                |    92.47
    3 Fe               |   9 O                |  35 Fe               |    99.48
    4 Fe               |  10 O                |  51 Fe               |   123.30
    2 Fe               |  12 O                |  34 Fe               |    99.48
    2 Fe               |  12 O                |  49 Fe               |   123.25
   34 Fe               |  12 O                |  49 Fe               |   123.25
    5 H                |  13 O                |  51 Fe               |   111.67
    5 H                |  13 O                |  83 Fe               |   111.67
   51 Fe               |  13 O                |  83 Fe               |    91.11
    2 Fe               |  14 O                |   6 H                |   128.39
    7 H                |  15 O                |  49 Fe               |   111.64
    4 Fe               |  16 O                |   8 H                |   128.35
   27 O                |  17 Fe               |  76 O                |    97.95
   27 O                |  17 Fe               |  79 O                |    83.69
   76 O                |  17 Fe               |  79 O                |    92.60
   28 O                |  18 Fe               |  30 O                |    92.47
   28 O                |  18 Fe               |  44 O                |    99.47
   30 O                |  18 Fe               |  44 O                |    92.47
   25 O                |  19 Fe               |  41 O                |    99.47
   25 O                |  19 Fe               |  74 O                |    97.85
   25 O                |  19 Fe               |  77 O                |    83.65
   25 O                |  19 Fe               |  93 O                |   168.54
   41 O                |  19 Fe               |  74 O                |    97.85
   41 O                |  19 Fe               |  77 O                |   168.54
   41 O                |  19 Fe               |  93 O                |    83.65
   74 O                |  19 Fe               |  77 O                |    92.61
   74 O                |  19 Fe               |  93 O                |    92.61
   77 O                |  19 Fe               |  93 O                |    91.23
   26 O                |  20 Fe               |  32 O                |    92.49
   20 Fe               |  26 O                |  36 Fe               |    99.48
   20 Fe               |  26 O                |  67 Fe               |   123.25
   36 Fe               |  26 O                |  67 Fe               |   123.25
   17 Fe               |  27 O                |  33 Fe               |    99.48
   18 Fe               |  28 O                |  65 Fe               |   123.30
   21 H                |  29 O                |  67 Fe               |   111.64
   18 Fe               |  30 O                |  22 H                |   128.35
   23 H                |  31 O                |  65 Fe               |   111.67
   23 H                |  31 O                |  81 Fe               |   111.67
   65 Fe               |  31 O                |  81 Fe               |    91.11
   20 Fe               |  32 O                |  24 H                |   128.39
   27 O                |  33 Fe               |  43 O                |    99.49
   27 O                |  33 Fe               |  79 O                |    83.69
   27 O                |  33 Fe               |  82 Lu               |   125.62
   27 O                |  33 Fe               |  92 O                |    97.95
   27 O                |  33 Fe               |  95 O                |   168.43
   43 O                |  33 Fe               |  79 O                |   168.46
   43 O                |  33 Fe               |  82 Lu               |    84.72
   43 O                |  33 Fe               |  92 O                |    97.90
   43 O                |  33 Fe               |  95 O                |    83.79
   79 O                |  33 Fe               |  82 Lu               |   102.54
   79 O                |  33 Fe               |  92 O                |    92.60
   79 O                |  33 Fe               |  95 O                |    91.01
   33 Fe               |  92 O                |  82 Lu               |   123.31
   82 Lu               |  33 Fe               |  95 O                |    65.56
   92 O                |  33 Fe               |  95 O                |    92.55
   12 O                |  34 Fe               |  44 O                |    99.49
   12 O                |  34 Fe               |  46 O                |    92.49
   44 O                |  34 Fe               |  46 O                |    92.38
    9 O                |  35 Fe               |  41 O                |    99.49
    9 O                |  35 Fe               |  61 O                |    83.69
    9 O                |  35 Fe               |  90 O                |    97.95
    9 O                |  35 Fe               |  93 O                |   168.43
   41 O                |  35 Fe               |  61 O                |   168.46
   41 O                |  35 Fe               |  90 O                |    97.90
   41 O                |  35 Fe               |  93 O                |    83.79
   61 O                |  35 Fe               |  90 O                |    92.60
   61 O                |  35 Fe               |  93 O                |    91.01
   90 O                |  35 Fe               |  93 O                |    92.55
   26 O                |  36 Fe               |  42 O                |    99.49
   26 O                |  36 Fe               |  48 O                |    92.49
   42 O                |  36 Fe               |  48 O                |    92.38
   19 Fe               |  41 O                |  35 Fe               |    99.48
    4 Fe               |  42 O                |  36 Fe               |    99.48
    4 Fe               |  42 O                |  83 Fe               |   123.30
   36 Fe               |  42 O                |  83 Fe               |   123.31
    1 Fe               |  43 O                |  33 Fe               |    99.48
   18 Fe               |  44 O                |  34 Fe               |    99.48
   18 Fe               |  44 O                |  81 Fe               |   123.30
   34 Fe               |  44 O                |  81 Fe               |   123.31
   37 H                |  45 O                |  67 Fe               |   111.64
   37 H                |  45 O                |  83 Fe               |   111.77
   67 Fe               |  45 O                |  83 Fe               |    91.07
   34 Fe               |  46 O                |  38 H                |   128.39
   39 H                |  47 O                |  49 Fe               |   111.64
   39 H                |  47 O                |  81 Fe               |   111.77
   49 Fe               |  47 O                |  81 Fe               |    91.07
   36 Fe               |  48 O                |  40 H                |   128.39
   12 O                |  49 Fe               |  15 O                |    92.61
   12 O                |  49 Fe               |  47 O                |    92.61
   12 O                |  49 Fe               |  59 O                |    97.85
   12 O                |  49 Fe               |  82 Lu               |    83.79
   12 O                |  49 Fe               |  91 O                |    97.85
   15 O                |  49 Fe               |  47 O                |    91.23
   15 O                |  49 Fe               |  59 O                |    83.65
   15 O                |  49 Fe               |  82 Lu               |   160.41
   15 O                |  49 Fe               |  91 O                |   168.54
   47 O                |  49 Fe               |  59 O                |   168.54
   47 O                |  49 Fe               |  82 Lu               |   108.13
   47 O                |  49 Fe               |  91 O                |    83.65
   59 O                |  49 Fe               |  82 Lu               |    77.82
   59 O                |  49 Fe               |  91 O                |    99.47
   49 Fe               |  91 O                |  82 Lu               |   123.30
   59 O                |  50 Fe               |  60 O                |    97.95
   59 O                |  50 Fe               |  62 O                |   163.90
   59 O                |  50 Fe               |  64 O                |    92.60
   59 O                |  50 Fe               |  82 Lu               |    90.01
   60 O                |  50 Fe               |  62 O                |    92.49
   60 O                |  50 Fe               |  64 O                |    83.69
   50 Fe               |  60 O                |  82 Lu               |    99.48
   62 O                |  50 Fe               |  64 O                |    76.35
   62 O                |  50 Fe               |  82 Lu               |    90.09
   50 Fe               |  64 O                |  82 Lu               |    91.11
   10 O                |  51 Fe               |  13 O                |    92.60
   10 O                |  51 Fe               |  57 O                |    97.95
   13 O                |  51 Fe               |  57 O                |    83.69
   57 O                |  52 Fe               |  58 O                |    97.85
   57 O                |  52 Fe               |  62 O                |    92.61
   57 O                |  52 Fe               |  64 O                |   163.97
   57 O                |  52 Fe               |  82 Lu               |   129.77
   57 O                |  52 Fe               |  90 O                |    97.85
   57 O                |  52 Fe               |  94 O                |    92.61
   58 O                |  52 Fe               |  62 O                |    83.65
   58 O                |  52 Fe               |  64 O                |    92.47
   58 O                |  52 Fe               |  82 Lu               |   130.62
   58 O                |  52 Fe               |  90 O                |    99.47
   58 O                |  52 Fe               |  94 O                |   168.54
   62 O                |  52 Fe               |  64 O                |    76.32
   62 O                |  52 Fe               |  82 Lu               |    82.12
   62 O                |  52 Fe               |  90 O                |   168.54
   62 O                |  52 Fe               |  94 O                |    91.23
   52 Fe               |  64 O                |  82 Lu               |   103.73
   64 O                |  52 Fe               |  90 O                |    92.47
   64 O                |  52 Fe               |  94 O                |    76.32
   82 Lu               |  52 Fe               |  90 O                |    87.57
   52 Fe               |  94 O                |  82 Lu               |   103.60
   90 O                |  52 Fe               |  94 O                |    83.65
   51 Fe               |  57 O                |  52 Fe               |   123.25
   51 Fe               |  57 O                |  83 Fe               |    99.48
   52 Fe               |  57 O                |  83 Fe               |   123.25
    3 Fe               |  58 O                |  52 Fe               |   123.30
   49 Fe               |  59 O                |  50 Fe               |   123.30
    1 Fe               |  60 O                |  50 Fe               |   123.25
    1 Fe               |  60 O                |  82 Lu               |   123.25
   50 Fe               |  60 O                |  82 Lu               |    99.48
    3 Fe               |  61 O                |  35 Fe               |    91.11
    3 Fe               |  61 O                |  53 H                |   111.67
   35 Fe               |  61 O                |  53 H                |   111.67
   50 Fe               |  62 O                |  52 Fe               |   103.60
   50 Fe               |  62 O                |  54 H                |   128.39
   52 Fe               |  62 O                |  54 H                |   111.64
    1 Fe               |  63 O                |  55 H                |   111.64
   50 Fe               |  64 O                |  52 Fe               |   103.73
   50 Fe               |  64 O                |  56 H                |   111.67
   50 Fe               |  64 O                |  82 Lu               |    91.11
   52 Fe               |  64 O                |  56 H                |   128.35
   52 Fe               |  64 O                |  82 Lu               |   103.73
   56 H                |  64 O                |  82 Lu               |   111.67
   28 O                |  65 Fe               |  31 O                |    92.60
   28 O                |  65 Fe               |  75 O                |    97.95
   31 O                |  65 Fe               |  75 O                |    83.69
   75 O                |  66 Fe               |  76 O                |    97.85
   75 O                |  66 Fe               |  78 O                |   163.97
   75 O                |  66 Fe               |  80 O                |    92.61
   75 O                |  66 Fe               |  82 Lu               |    90.00
   75 O                |  66 Fe               |  92 O                |    97.85
   75 O                |  66 Fe               |  96 O                |    92.61
   76 O                |  66 Fe               |  78 O                |    92.47
   76 O                |  66 Fe               |  80 O                |    83.65
   76 O                |  66 Fe               |  82 Lu               |   139.71
   76 O                |  66 Fe               |  92 O                |    99.47
   76 O                |  66 Fe               |  96 O                |   168.54
   78 O                |  66 Fe               |  80 O                |    76.32
   78 O                |  66 Fe               |  82 Lu               |    90.01
   78 O                |  66 Fe               |  92 O                |    92.47
   78 O                |  66 Fe               |  96 O                |    76.32
   80 O                |  66 Fe               |  82 Lu               |   135.64
   80 O                |  66 Fe               |  92 O                |   168.54
   80 O                |  66 Fe               |  96 O                |    91.23
   66 Fe               |  92 O                |  82 Lu               |    99.48
   66 Fe               |  96 O                |  82 Lu               |    91.07
   92 O                |  66 Fe               |  96 O                |    83.65
   26 O                |  67 Fe               |  29 O                |    92.61
   26 O                |  67 Fe               |  45 O                |    92.61
   26 O                |  67 Fe               |  73 O                |    97.85
   26 O                |  67 Fe               |  89 O                |    97.85
   29 O                |  67 Fe               |  45 O                |    91.23
   29 O                |  67 Fe               |  73 O                |    83.65
   29 O                |  67 Fe               |  89 O                |   168.54
   45 O                |  67 Fe               |  73 O                |   168.54
   45 O                |  67 Fe               |  89 O                |    83.65
   73 O                |  67 Fe               |  89 O                |    99.47
   73 O                |  68 Fe               |  74 O                |    97.95
   73 O                |  68 Fe               |  78 O                |    92.60
   73 O                |  68 Fe               |  80 O                |   163.90
   74 O                |  68 Fe               |  78 O                |    83.69
   74 O                |  68 Fe               |  80 O                |    92.49
   78 O                |  68 Fe               |  80 O                |    76.35
   67 Fe               |  73 O                |  68 Fe               |   123.30
   19 Fe               |  74 O                |  68 Fe               |   123.25
   19 Fe               |  74 O                |  84 Fe               |   123.25
   68 Fe               |  74 O                |  84 Fe               |    99.48
   65 Fe               |  75 O                |  66 Fe               |   123.25
   65 Fe               |  75 O                |  81 Fe               |    99.48
   66 Fe               |  75 O                |  81 Fe               |   123.25
   17 Fe               |  76 O                |  66 Fe               |   123.30
   19 Fe               |  77 O                |  69 H                |   111.64
   66 Fe               |  78 O                |  68 Fe               |   103.73
   66 Fe               |  78 O                |  70 H                |   128.35
   66 Fe               |  78 O                |  84 Fe               |   103.73
   68 Fe               |  78 O                |  70 H                |   111.67
   68 Fe               |  78 O                |  84 Fe               |    91.11
   70 H                |  78 O                |  84 Fe               |   111.67
   17 Fe               |  79 O                |  33 Fe               |    91.11
   17 Fe               |  79 O                |  71 H                |   111.67
   33 Fe               |  79 O                |  71 H                |   111.67
   66 Fe               |  80 O                |  68 Fe               |   103.60
   66 Fe               |  80 O                |  72 H                |   111.64
   68 Fe               |  80 O                |  72 H                |   128.39
   31 O                |  81 Fe               |  44 O                |    92.60
   31 O                |  81 Fe               |  47 O                |    91.01
   31 O                |  81 Fe               |  75 O                |    83.69
   31 O                |  81 Fe               |  82 Lu               |   160.49
   31 O                |  81 Fe               |  91 O                |   168.46
   44 O                |  81 Fe               |  47 O                |    92.55
   44 O                |  81 Fe               |  75 O                |    97.95
   44 O                |  81 Fe               |  82 Lu               |    83.86
   44 O                |  81 Fe               |  91 O                |    97.90
   47 O                |  81 Fe               |  75 O                |   168.43
   47 O                |  81 Fe               |  82 Lu               |   108.28
   47 O                |  81 Fe               |  91 O                |    83.79
   75 O                |  81 Fe               |  82 Lu               |    77.84
   75 O                |  81 Fe               |  91 O                |    99.49
   81 Fe               |  91 O                |  82 Lu               |   123.31
    1 Fe               |  82 Lu               |  33 Fe               |    52.42
    1 Fe               |  82 Lu               |  49 Fe               |    83.50
    1 Fe               |  82 Lu               |  50 Fe               |    63.79
    1 Fe               |  82 Lu               |  52 Fe               |   114.90
   82 Lu               |  60 O                |   1 Fe               |   123.25
    1 Fe               |  82 Lu               |  64 O                |   108.18
    1 Fe               |  82 Lu               |  66 Fe               |   116.24
    1 Fe               |  82 Lu               |  81 Fe               |   106.06
    1 Fe               |  82 Lu               |  84 Fe               |   145.33
    1 Fe               |  82 Lu               |  91 O                |    83.84
    1 Fe               |  82 Lu               |  92 O                |    77.85
    1 Fe               |  82 Lu               |  94 O                |   110.54
    1 Fe               |  82 Lu               |  96 O                |   160.58
   33 Fe               |  82 Lu               |  49 Fe               |   106.08
   33 Fe               |  82 Lu               |  50 Fe               |   116.21
   33 Fe               |  82 Lu               |  52 Fe               |   145.29
   33 Fe               |  82 Lu               |  60 O                |    77.84
   33 Fe               |  82 Lu               |  64 O                |   160.49
   33 Fe               |  82 Lu               |  66 Fe               |    63.82
   33 Fe               |  82 Lu               |  81 Fe               |    83.52
   33 Fe               |  82 Lu               |  84 Fe               |   114.90
   33 Fe               |  82 Lu               |  91 O                |    83.86
   82 Lu               |  92 O                |  33 Fe               |   123.31
   33 Fe               |  82 Lu               |  94 O                |   110.43
   33 Fe               |  82 Lu               |  96 O                |   108.28
   49 Fe               |  82 Lu               |  50 Fe               |    63.80
   49 Fe               |  82 Lu               |  52 Fe               |   103.65
   49 Fe               |  82 Lu               |  60 O                |    84.75
   49 Fe               |  82 Lu               |  64 O                |    65.58
   49 Fe               |  82 Lu               |  66 Fe               |   116.19
   49 Fe               |  82 Lu               |  81 Fe               |    52.40
   49 Fe               |  82 Lu               |  84 Fe               |   129.57
   82 Lu               |  91 O                |  49 Fe               |   123.30
   49 Fe               |  82 Lu               |  92 O                |   125.59
   49 Fe               |  82 Lu               |  94 O                |   141.91
   49 Fe               |  82 Lu               |  96 O                |   102.45
   50 Fe               |  82 Lu               |  52 Fe               |    62.98
   82 Lu               |  60 O                |  50 Fe               |    99.48
   82 Lu               |  64 O                |  50 Fe               |    91.11
   50 Fe               |  82 Lu               |  66 Fe               |   179.97
   50 Fe               |  82 Lu               |  81 Fe               |   116.21
   50 Fe               |  82 Lu               |  84 Fe               |   117.01
   50 Fe               |  82 Lu               |  91 O                |    90.01
   50 Fe               |  82 Lu               |  92 O                |   139.75
   50 Fe               |  82 Lu               |  94 O                |    90.09
   50 Fe               |  82 Lu               |  96 O                |   135.46
   52 Fe               |  82 Lu               |  60 O                |    87.54
   82 Lu               |  64 O                |  52 Fe               |   103.73
   52 Fe               |  82 Lu               |  66 Fe               |   117.00
   52 Fe               |  82 Lu               |  81 Fe               |   129.59
   52 Fe               |  82 Lu               |  84 Fe               |    54.04
   52 Fe               |  82 Lu               |  91 O                |   129.71
   52 Fe               |  82 Lu               |  92 O                |   130.61
   82 Lu               |  94 O                |  52 Fe               |   103.60
   52 Fe               |  82 Lu               |  96 O                |    81.99
   60 O                |  82 Lu               |  64 O                |    83.69
   60 O                |  82 Lu               |  66 Fe               |   139.77
   60 O                |  82 Lu               |  81 Fe               |   125.62
   60 O                |  82 Lu               |  84 Fe               |   130.58
   60 O                |  82 Lu               |  91 O                |    97.95
   60 O                |  82 Lu               |  92 O                |    99.49
   60 O                |  82 Lu               |  94 O                |    92.49
   60 O                |  82 Lu               |  96 O                |   168.43
   64 O                |  82 Lu               |  66 Fe               |   135.53
   64 O                |  82 Lu               |  81 Fe               |   102.54
   64 O                |  82 Lu               |  84 Fe               |    82.03
   64 O                |  82 Lu               |  91 O                |    92.60
   64 O                |  82 Lu               |  92 O                |   168.46
   64 O                |  82 Lu               |  94 O                |    76.35
   64 O                |  82 Lu               |  96 O                |    91.01
   66 Fe               |  82 Lu               |  81 Fe               |    63.79
   66 Fe               |  82 Lu               |  84 Fe               |    62.97
   66 Fe               |  82 Lu               |  91 O                |    89.99
   82 Lu               |  92 O                |  66 Fe               |    99.48
   66 Fe               |  82 Lu               |  94 O                |    89.90
   82 Lu               |  96 O                |  66 Fe               |    91.07
   81 Fe               |  82 Lu               |  84 Fe               |   103.64
   82 Lu               |  91 O                |  81 Fe               |   123.31
   81 Fe               |  82 Lu               |  92 O                |    84.72
   81 Fe               |  82 Lu               |  94 O                |   141.78
   81 Fe               |  82 Lu               |  96 O                |    65.56
   84 Fe               |  82 Lu               |  91 O                |   129.68
   84 Fe               |  82 Lu               |  92 O                |    87.57
   82 Lu               |  94 O                |  84 Fe               |   103.77
   82 Lu               |  96 O                |  84 Fe               |   103.77
   91 O                |  82 Lu               |  92 O                |    97.90
   91 O                |  82 Lu               |  94 O                |   163.90
   91 O                |  82 Lu               |  96 O                |    92.55
   92 O                |  82 Lu               |  94 O                |    92.38
   92 O                |  82 Lu               |  96 O                |    83.79
   94 O                |  82 Lu               |  96 O                |    76.23
   13 O                |  83 Fe               |  42 O                |    92.60
   13 O                |  83 Fe               |  45 O                |    91.01
   13 O                |  83 Fe               |  57 O                |    83.69
   13 O                |  83 Fe               |  89 O                |   168.46
   42 O                |  83 Fe               |  45 O                |    92.55
   42 O                |  83 Fe               |  57 O                |    97.95
   42 O                |  83 Fe               |  89 O                |    97.90
   45 O                |  83 Fe               |  57 O                |   168.43
   45 O                |  83 Fe               |  89 O                |    83.79
   57 O                |  83 Fe               |  89 O                |    99.49
   74 O                |  84 Fe               |  78 O                |    83.69
   74 O                |  84 Fe               |  82 Lu               |   130.58
   74 O                |  84 Fe               |  89 O                |    97.95
   74 O                |  84 Fe               |  90 O                |    99.49
   74 O                |  84 Fe               |  94 O                |   168.43
   74 O                |  84 Fe               |  96 O                |    92.49
   78 O                |  84 Fe               |  82 Lu               |    82.03
   78 O                |  84 Fe               |  89 O                |    92.60
   78 O                |  84 Fe               |  90 O                |   168.46
   78 O                |  84 Fe               |  94 O                |    91.01
   78 O                |  84 Fe               |  96 O                |    76.35
   82 Lu               |  84 Fe               |  89 O                |   129.68
   82 Lu               |  84 Fe               |  90 O                |    87.57
   84 Fe               |  94 O                |  82 Lu               |   103.77
   84 Fe               |  96 O                |  82 Lu               |   103.77
   89 O                |  84 Fe               |  90 O                |    97.90
   89 O                |  84 Fe               |  94 O                |    92.55
   89 O                |  84 Fe               |  96 O                |   163.90
   90 O                |  84 Fe               |  94 O                |    83.79
   90 O                |  84 Fe               |  96 O                |    92.38
   94 O                |  84 Fe               |  96 O                |    76.23
   67 Fe               |  89 O                |  83 Fe               |    99.48
   67 Fe               |  89 O                |  84 Fe               |   123.30
   83 Fe               |  89 O                |  84 Fe               |   123.31
   35 Fe               |  90 O                |  52 Fe               |   123.30
   35 Fe               |  90 O                |  84 Fe               |   123.31
   52 Fe               |  90 O                |  84 Fe               |    99.48
   49 Fe               |  91 O                |  81 Fe               |    99.48
   49 Fe               |  91 O                |  82 Lu               |   123.30
   81 Fe               |  91 O                |  82 Lu               |   123.31
   33 Fe               |  92 O                |  66 Fe               |   123.30
   33 Fe               |  92 O                |  82 Lu               |   123.31
   66 Fe               |  92 O                |  82 Lu               |    99.48
   19 Fe               |  93 O                |  35 Fe               |    91.07
   19 Fe               |  93 O                |  85 H                |   111.64
   35 Fe               |  93 O                |  85 H                |   111.77
   52 Fe               |  94 O                |  82 Lu               |   103.60
   52 Fe               |  94 O                |  84 Fe               |    91.07
   52 Fe               |  94 O                |  86 H                |   111.64
   82 Lu               |  94 O                |  84 Fe               |   103.77
   82 Lu               |  94 O                |  86 H                |   128.39
   84 Fe               |  94 O                |  86 H                |   111.77
    1 Fe               |  95 O                |  33 Fe               |    91.07
    1 Fe               |  95 O                |  87 H                |   111.64
   33 Fe               |  95 O                |  87 H                |   111.77
   66 Fe               |  96 O                |  82 Lu               |    91.07
   66 Fe               |  96 O                |  84 Fe               |   103.60
   66 Fe               |  96 O                |  88 H                |   111.64
   82 Lu               |  96 O                |  84 Fe               |   103.77
   82 Lu               |  96 O                |  88 H                |   111.77
   84 Fe               |  96 O                |  88 H                |   128.39
 ------------------------------------------------------------------------------
                            number of included internuclear angles:        406
 ==============================================================================



          ****************************************************
          *                                                  *
          *               NWPW PSPW Calculation              *
          *                                                  *
          * [ (Grassmann/Stiefel manifold implementation)  ] *
          *                                                  *
          *      [ NorthWest Chemistry implementation ]      *
          *                                                  *
          *            version #5.10   06/12/02              *
          *                                                  *
          *    This code was developed by Eric J. Bylaska,   *
          *    and was based upon algorithms and code        *
          *    developed by the group of Prof. John H. Weare *
          *                                                  *
          ****************************************************
     >>>  JOB STARTED       AT Thu Jan 19 22:39:04 2023  <<<
          ================ input data ========================

 Antiferromagnetic Pentalty Function Input:
   - pspspin: up    l = 3           scale =  -1.000
   - pspspin: up    ion indexes  =    1    4   17   20   33   36   49   52   65   68
   - pspspin: up    ion indexes  =   81   84
   - pspspin: down  l = 3           scale =  -1.000
   - pspspin: down  ion indexes  =    2    3   18   19   34   35   50   51   66   67
   - pspspin: down  ion indexes  =   82   83
  library name resolved from: compiled reference
  NWCHEM_NWPW_LIBRARY set to: </Users/bylaska/nwchem-releases/nwchem/src/nwpw/libraryps/>
 Generating 1d pseudopotential for Fe  

 Generated formatted_filename: ./perm/Fe.vpp
  library name resolved from: compiled reference
  NWCHEM_NWPW_LIBRARY set to: </Users/bylaska/nwchem-releases/nwchem/src/nwpw/libraryps/>
 Generating 1d pseudopotential for H   

 Generated formatted_filename: ./perm/H.vpp
  library name resolved from: compiled reference
  NWCHEM_NWPW_LIBRARY set to: </Users/bylaska/nwchem-releases/nwchem/src/nwpw/libraryps/>
 Generating 1d pseudopotential for O   

 Generated formatted_filename: ./perm/O.vpp
  library name resolved from: compiled reference
  NWCHEM_NWPW_LIBRARY set to: </Users/bylaska/nwchem-releases/nwchem/src/nwpw/libraryps/>
 Generating 1d pseudopotential for Lu  

 Generated formatted_filename: ./perm/Lu.vpp
 random planewave guess, initial psi:goethite_Lu82.movecs                              
 -   spin, nalpha, nbeta:                    2                  263                  258

 input psi filename:./perm/goethite_Lu82.movecs

 Warning - K.S. orbitals are not orthonormal. Applying Gram-Schmidt orthonormalization.
         - exact norm=0.521000E+03 norm=0.330416E+03 corrected norm=0.521000E+03 (error=0.190584E+03)


 number of processors used:         8
 processor grid           :   8 x   1
 parallel mapping         :2d-hilbert
 parallel mapping         :  balanced
 number of threads        :         1
 parallel io              :       off

 options:
      boundary conditions  = periodic    (version3)
      electron spin        = unrestricted
      exchange-correlation = PBE96 (White and Bird) parameterization

 elements involved in the cluster:
      1: Fe  valence charge:  8.0000  lmax=  2
             comment    : Troullier-Martins pseudopotential
             pseudpotential type            :   0
             highest angular component      :   2
             local potential used           :   0
             number of non-local projections:   8
             semicore corrections included  :  0.800 (radius)  8.935 (charge)
             cutoff =   2.292   2.835   2.292

      2: H   valence charge:  1.0000  lmax=  1
             comment    : Parameterized (Chem.Phys.Lett., vol 322, page 447) Hamman psp
             pseudpotential type            :   0
             highest angular component      :   1
             local potential used           :   1
             number of non-local projections:   1
             cutoff =   0.800   0.800

      3: O   valence charge:  6.0000  lmax=  2
             comment    : Parameterized (Chem.Phys.Lett., vol 322, page 447) Hamman psp
             pseudpotential type            :   0
             highest angular component      :   2
             local potential used           :   2
             number of non-local projections:   4
             cutoff =   0.700   0.700   0.700

      4: Lu  valence charge:25.0  core charge:46.0
             comment    : Parameterized Lu paw (4f5s5p5d5f6s6p projectors, 4/5/2022 by EJB)
             pseudpotential type            :   4
             loggrid parameter r0        : 0.200E-02
             loggrid parameter rmax      : 0.250E+02
             loggrid parameter npoints   :      3000
             augmentation sphere radius  :     2.392 ( 2254 npoints 2254 per task)
             compensation sigma          :     0.346
             total number of projectors  :        27
             n_ps (n) l          eig      #projector
                4 (4) f    -0.386391               7
                1 (5) s    -2.109986               1
                2 (5) p    -1.185266               3
                3 (5) d    -0.078758               5
                5 (5) f     1.000000               7
                2 (6) s    -0.168724               1
                3 (6) p    -0.054943               3


 total charge:   0.000

 atomic composition:
     Fe  :   23     H   :   24     O   :   48     Lu  :    1

 number of electrons: spin up=   263 ( 263 per task)  down=   258 ( 258 per task) (Fourier space)
 number of orbitals : spin up=   263 ( 263 per task)  down=   258 ( 258 per task) (Fourier space)

 supercell:
      cell_name:  cell_default                                      
      lattice:    a1=<  19.023   0.000   0.000 >
                  a2=<   0.000  17.301   0.000 >
                  a3=<   0.000   0.000  17.393 >
      reciprocal: b1=<   0.330   0.000  -0.000 >
                  b2=<  -0.000   0.363  -0.000 >
                  b3=<   0.000   0.000   0.361 >
      lattice:    a=      19.023 b=     17.301 c=      17.393
                  alpha=  90.000 beta=  90.000 gamma=  90.000
                  omega=      5724.4

      density cutoff= 12.000  fft= 32x 28x 28(     5675 waves      709 per task)
      wavefnc cutoff=  6.000  fft= 32x 28x 28(     2009 waves      251 per task)
      paw integration: xc lmax=  0 compensation charge= two-electron Gaussian
      Ewald summation: cut radius=    3.50  and  8
                       Madelung Wigner-Seitz=    1.75499096 (alpha=    2.82903130 rs=11.09723364)

 technical parameters:
      time step=      5.80     fictitious mass=  400000.0
      tolerance=0.100E-06 (energy)   0.100E-06 (density)
      maximum iterations =       100 (   10 inner     10 outer )





== Energy Calculation ==


          ====== Grassmann conjugate gradient iteration ======
     >>>  ITERATION STARTED AT Thu Jan 19 22:39:18 2023  <<<
    iter.           Energy         DeltaE       DeltaRho 
    ------------------------------------------------------
     -  15 steepest descent iterations performed
      10   -0.1672570411E+04   -0.60153E+01    0.17464E-01
     -  10 steepest descent iterations performed
      20   -0.1695280358E+04   -0.96284E+00    0.74010E-02
     -  10 steepest descent iterations performed
      30   -0.1719752944E+04   -0.26798E+00    0.20384E-02
     -  10 steepest descent iterations performed
      40   -0.1723465570E+04   -0.12129E+00    0.11930E-02
     -  10 steepest descent iterations performed
      50   -0.1726778279E+04   -0.57393E-01    0.12828E-04
     -  10 steepest descent iterations performed
      60   -0.1727371898E+04   -0.27122E-01    0.35577E-03
     -  10 steepest descent iterations performed
      70   -0.1727806065E+04   -0.26707E-01    0.33927E-03
     -  10 steepest descent iterations performed
      80   -0.1728639775E+04   -0.10518E+00    0.53494E-03
     -  10 steepest descent iterations performed
      90   -0.1728917362E+04   -0.23369E-01    0.22851E-03
     -  10 steepest descent iterations performed
     100   -0.1729551608E+04   -0.97766E-02    0.10933E-03
 *** arrived at the Maximum iteration.  terminated
     >>>  ITERATION ENDED   AT Thu Jan 19 22:48:11 2023  <<<


==  Summary Of Results  ==

 number of electrons: spin up=  263.00000  down=  258.00000 (real space)
     plane-wave part:           258.65793         256.91848 (real space)
      augmented part:             4.34207           1.08152 (real space)

 total     energy    :  -0.1729551608E+04 (   -0.18016E+02/ion)

 total paw energy    :  -0.1580383010E+05 (   -0.16462E+03/ion)
 total orbital energy:   0.3681532512E+02 (    0.70663E-01/electron)
 hartree   energy    :   0.2038157831E+03 (    0.39120E+00/electron)
 exc-corr  energy    :  -0.4385460491E+03 (   -0.84174E+00/electron)
 ion-ion   energy    :  -0.1123723142E+04 (   -0.11705E+02/ion)

 kinetic (planewave) :   0.5423748935E+03 (    0.10410E+01/electron)
 V_local (planewave) :  -0.6316278894E+03 (   -0.12123E+01/electron)
 V_nl    (planewave) :  -0.8636050791E+01 (   -0.16576E-01/electron)
 V_Coul  (planewave) :   0.4076315662E+03 (    0.78240E+00/electron)
 V_xc.   (planewave) :  -0.3202271475E+03 (   -0.61464E+00/electron)
 Virial Coefficient  :  -0.1019330961E+01

 kinetic (loc. basis):   0.2887428072E+03 (    0.55421E+00/electron)
 kinetic       (core):   0.1428099103E+05 (    0.14876E+03/ion)
 valence-core        :  -0.1048756640E+03 (   -0.20130E+00/electron)
 ncmp*V_local        :  -0.2736607320E+03 (   -0.52526E+00/electron)
 V_lpaw  (loc. basis):  -0.2421910810E+01 (   -0.46486E-02/electron)
 coulomb (loc. basis):  -0.1724165900E+02 (   -0.33093E-01/electron)
 coulomb  (ncmp-ncmp):   0.3156558208E+02 (    0.60587E-01/electron)
 coulomb    (ncmp-pw):   0.4729995317E+02 (    0.90787E-01/electron)
 exc-cor (loc. basis):  -0.2739228525E+03 (   -0.52576E+00/electron)
 pxc-cor (loc. basis):  -0.1503762293E+02 (   -0.15664E+00/electron)
 ion-core            :  -0.2835526953E+05 (   -0.29537E+03/ion)

 orbital energies:
     0.6600571E+00 (  17.961eV)
     0.6543399E+00 (  17.806eV)
     0.6467768E+00 (  17.600eV)
     0.6395258E+00 (  17.403eV)
     0.6365885E+00 (  17.323eV)
     0.6295649E+00 (  17.131eV)     0.6717271E+00 (  18.279eV)
     0.6287758E+00 (  17.110eV)     0.6529020E+00 (  17.767eV)
     0.6254050E+00 (  17.018eV)     0.6471440E+00 (  17.610eV)
     0.6148197E+00 (  16.730eV)     0.6457455E+00 (  17.572eV)
     0.6131370E+00 (  16.684eV)     0.6403944E+00 (  17.426eV)
     0.6093985E+00 (  16.583eV)     0.6333046E+00 (  17.233eV)
     0.6077972E+00 (  16.539eV)     0.6291508E+00 (  17.120eV)
     0.6035453E+00 (  16.423eV)     0.6272873E+00 (  17.069eV)
     0.6020826E+00 (  16.384eV)     0.6191585E+00 (  16.848eV)
     0.6002038E+00 (  16.333eV)     0.6155304E+00 (  16.750eV)
     0.5953559E+00 (  16.201eV)     0.6138983E+00 (  16.705eV)
     0.5929419E+00 (  16.135eV)     0.6108941E+00 (  16.623eV)
     0.5904344E+00 (  16.067eV)     0.6094713E+00 (  16.585eV)
     0.5869187E+00 (  15.971eV)     0.6071373E+00 (  16.521eV)
     0.5862682E+00 (  15.953eV)     0.6033248E+00 (  16.417eV)
     0.5831708E+00 (  15.869eV)     0.6010461E+00 (  16.355eV)
     0.5787870E+00 (  15.750eV)     0.5996224E+00 (  16.317eV)
     0.5704672E+00 (  15.523eV)     0.5943813E+00 (  16.174eV)
     0.5640586E+00 (  15.349eV)     0.5939399E+00 (  16.162eV)
     0.5596581E+00 (  15.229eV)     0.5930005E+00 (  16.136eV)
     0.5536965E+00 (  15.067eV)     0.5898690E+00 (  16.051eV)
     0.5497321E+00 (  14.959eV)     0.5828324E+00 (  15.860eV)
     0.5407328E+00 (  14.714eV)     0.5794175E+00 (  15.767eV)
     0.5353704E+00 (  14.568eV)     0.5732267E+00 (  15.598eV)
     0.5327910E+00 (  14.498eV)     0.5720511E+00 (  15.566eV)
     0.5309809E+00 (  14.449eV)     0.5642651E+00 (  15.355eV)
     0.5289147E+00 (  14.393eV)     0.5600200E+00 (  15.239eV)
     0.5230615E+00 (  14.233eV)     0.5543714E+00 (  15.085eV)
     0.5208964E+00 (  14.174eV)     0.5479836E+00 (  14.912eV)
     0.5168002E+00 (  14.063eV)     0.5412764E+00 (  14.729eV)
     0.5160753E+00 (  14.043eV)     0.5390247E+00 (  14.668eV)
     0.5092058E+00 (  13.856eV)     0.5338734E+00 (  14.528eV)
     0.5056418E+00 (  13.759eV)     0.5303217E+00 (  14.431eV)
     0.4977876E+00 (  13.546eV)     0.5286123E+00 (  14.384eV)
     0.4957169E+00 (  13.489eV)     0.5229760E+00 (  14.231eV)
     0.4911548E+00 (  13.365eV)     0.5197239E+00 (  14.143eV)
     0.4865375E+00 (  13.239eV)     0.5179005E+00 (  14.093eV)
     0.4825975E+00 (  13.132eV)     0.5154887E+00 (  14.027eV)
     0.4784451E+00 (  13.019eV)     0.5078020E+00 (  13.818eV)
     0.4763767E+00 (  12.963eV)     0.5056547E+00 (  13.760eV)
     0.4727018E+00 (  12.863eV)     0.5037964E+00 (  13.709eV)
     0.4715080E+00 (  12.830eV)     0.4966675E+00 (  13.515eV)
     0.4704204E+00 (  12.801eV)     0.4899118E+00 (  13.331eV)
     0.4700468E+00 (  12.791eV)     0.4862650E+00 (  13.232eV)
     0.4615088E+00 (  12.558eV)     0.4825991E+00 (  13.132eV)
     0.4569229E+00 (  12.434eV)     0.4769353E+00 (  12.978eV)
     0.4558486E+00 (  12.404eV)     0.4757669E+00 (  12.946eV)
     0.4501611E+00 (  12.250eV)     0.4744638E+00 (  12.911eV)
     0.4450547E+00 (  12.111eV)     0.4712072E+00 (  12.822eV)
     0.4252751E+00 (  11.572eV)     0.4696750E+00 (  12.781eV)
     0.4155112E+00 (  11.307eV)     0.4687289E+00 (  12.755eV)
     0.4109485E+00 (  11.183eV)     0.4631660E+00 (  12.603eV)
     0.4035589E+00 (  10.981eV)     0.4549127E+00 (  12.379eV)
     0.3958619E+00 (  10.772eV)     0.4528602E+00 (  12.323eV)
     0.3892489E+00 (  10.592eV)     0.4523591E+00 (  12.309eV)
     0.3743167E+00 (  10.186eV)     0.4512991E+00 (  12.281eV)
     0.3713654E+00 (  10.105eV)     0.4252841E+00 (  11.573eV)
     0.3630951E+00 (   9.880eV)     0.4181492E+00 (  11.379eV)
     0.3621169E+00 (   9.854eV)     0.4111009E+00 (  11.187eV)
     0.3561802E+00 (   9.692eV)     0.4035467E+00 (  10.981eV)
     0.3559350E+00 (   9.686eV)     0.3940683E+00 (  10.723eV)
     0.3538502E+00 (   9.629eV)     0.3881208E+00 (  10.561eV)
     0.3532549E+00 (   9.613eV)     0.3810539E+00 (  10.369eV)
     0.3523289E+00 (   9.587eV)     0.3748592E+00 (  10.201eV)
     0.3517105E+00 (   9.571eV)     0.3628084E+00 (   9.873eV)
     0.3481675E+00 (   9.474eV)     0.3624630E+00 (   9.863eV)
     0.3456382E+00 (   9.405eV)     0.3568371E+00 (   9.710eV)
     0.3441848E+00 (   9.366eV)     0.3553164E+00 (   9.669eV)
     0.3438763E+00 (   9.357eV)     0.3536815E+00 (   9.624eV)
     0.3422121E+00 (   9.312eV)     0.3532947E+00 (   9.614eV)
     0.3415304E+00 (   9.294eV)     0.3528366E+00 (   9.601eV)
     0.3408385E+00 (   9.275eV)     0.3517267E+00 (   9.571eV)
     0.3370043E+00 (   9.170eV)     0.3475094E+00 (   9.456eV)
     0.3363349E+00 (   9.152eV)     0.3447038E+00 (   9.380eV)
     0.3339822E+00 (   9.088eV)     0.3438242E+00 (   9.356eV)
     0.3286529E+00 (   8.943eV)     0.3431040E+00 (   9.336eV)
     0.3249567E+00 (   8.843eV)     0.3415375E+00 (   9.294eV)
     0.3209056E+00 (   8.732eV)     0.3412551E+00 (   9.286eV)
     0.3144948E+00 (   8.558eV)     0.3404037E+00 (   9.263eV)
     0.3061096E+00 (   8.330eV)     0.3381348E+00 (   9.201eV)
     0.3017176E+00 (   8.210eV)     0.3365175E+00 (   9.157eV)
     0.3002908E+00 (   8.171eV)     0.3353032E+00 (   9.124eV)
     0.2990572E+00 (   8.138eV)     0.3317028E+00 (   9.026eV)
     0.2981805E+00 (   8.114eV)     0.3245338E+00 (   8.831eV)
     0.2960935E+00 (   8.057eV)     0.3200090E+00 (   8.708eV)
     0.2958692E+00 (   8.051eV)     0.3152967E+00 (   8.580eV)
     0.2953869E+00 (   8.038eV)     0.3080761E+00 (   8.383eV)
     0.2937237E+00 (   7.993eV)     0.3063377E+00 (   8.336eV)
     0.2926854E+00 (   7.964eV)     0.3037098E+00 (   8.264eV)
     0.2904238E+00 (   7.903eV)     0.3011280E+00 (   8.194eV)
     0.2888190E+00 (   7.859eV)     0.2984050E+00 (   8.120eV)
     0.2877515E+00 (   7.830eV)     0.2975005E+00 (   8.095eV)
     0.2864386E+00 (   7.794eV)     0.2955013E+00 (   8.041eV)
     0.2862620E+00 (   7.790eV)     0.2943885E+00 (   8.011eV)
     0.2840697E+00 (   7.730eV)     0.2933653E+00 (   7.983eV)
     0.2831270E+00 (   7.704eV)     0.2927897E+00 (   7.967eV)
     0.2827574E+00 (   7.694eV)     0.2914363E+00 (   7.930eV)
     0.2817047E+00 (   7.666eV)     0.2887859E+00 (   7.858eV)
     0.2769682E+00 (   7.537eV)     0.2885109E+00 (   7.851eV)
     0.2745429E+00 (   7.471eV)     0.2873520E+00 (   7.819eV)
     0.2718011E+00 (   7.396eV)     0.2852224E+00 (   7.761eV)
     0.2702399E+00 (   7.354eV)     0.2836352E+00 (   7.718eV)
     0.2694171E+00 (   7.331eV)     0.2830583E+00 (   7.702eV)
     0.2680310E+00 (   7.294eV)     0.2820812E+00 (   7.676eV)
     0.2631320E+00 (   7.160eV)     0.2817842E+00 (   7.668eV)
     0.2621488E+00 (   7.133eV)     0.2801952E+00 (   7.625eV)
     0.2614678E+00 (   7.115eV)     0.2752269E+00 (   7.489eV)
     0.2600951E+00 (   7.078eV)     0.2720667E+00 (   7.403eV)
     0.2592303E+00 (   7.054eV)     0.2709821E+00 (   7.374eV)
     0.2556152E+00 (   6.956eV)     0.2705148E+00 (   7.361eV)
     0.2548494E+00 (   6.935eV)     0.2683393E+00 (   7.302eV)
     0.2544823E+00 (   6.925eV)     0.2668998E+00 (   7.263eV)
     0.2507294E+00 (   6.823eV)     0.2623209E+00 (   7.138eV)
     0.2502346E+00 (   6.809eV)     0.2613298E+00 (   7.111eV)
     0.2486014E+00 (   6.765eV)     0.2610948E+00 (   7.105eV)
     0.2457191E+00 (   6.686eV)     0.2585039E+00 (   7.034eV)
     0.2440259E+00 (   6.640eV)     0.2579803E+00 (   7.020eV)
     0.2405044E+00 (   6.545eV)     0.2574790E+00 (   7.006eV)
     0.2391904E+00 (   6.509eV)     0.2554039E+00 (   6.950eV)
     0.2387789E+00 (   6.498eV)     0.2537969E+00 (   6.906eV)
     0.2386339E+00 (   6.494eV)     0.2520391E+00 (   6.858eV)
     0.2369830E+00 (   6.449eV)     0.2503161E+00 (   6.812eV)
     0.2357372E+00 (   6.415eV)     0.2492035E+00 (   6.781eV)
     0.2353463E+00 (   6.404eV)     0.2439854E+00 (   6.639eV)
     0.2329747E+00 (   6.340eV)     0.2434810E+00 (   6.626eV)
     0.2302812E+00 (   6.266eV)     0.2402170E+00 (   6.537eV)
     0.2279742E+00 (   6.204eV)     0.2396686E+00 (   6.522eV)
     0.2275496E+00 (   6.192eV)     0.2387313E+00 (   6.496eV)
     0.2259210E+00 (   6.148eV)     0.2382637E+00 (   6.484eV)
     0.2217743E+00 (   6.035eV)     0.2362596E+00 (   6.429eV)
     0.2190286E+00 (   5.960eV)     0.2350178E+00 (   6.395eV)
     0.2182511E+00 (   5.939eV)     0.2345884E+00 (   6.384eV)
     0.2156219E+00 (   5.867eV)     0.2343092E+00 (   6.376eV)
[...]
converting .... psi:  179 spin: 1
converting .... psi:  180 spin: 1
converting .... psi:  181 spin: 1
converting .... psi:  182 spin: 1
converting .... psi:  183 spin: 1
converting .... psi:  184 spin: 1
converting .... psi:  185 spin: 1
converting .... psi:  186 spin: 1
converting .... psi:  187 spin: 1
converting .... psi:  188 spin: 1
converting .... psi:  189 spin: 1
converting .... psi:  190 spin: 1
converting .... psi:  191 spin: 1
converting .... psi:  192 spin: 1
converting .... psi:  193 spin: 1
converting .... psi:  194 spin: 1
converting .... psi:  195 spin: 1
converting .... psi:  196 spin: 1
converting .... psi:  197 spin: 1
converting .... psi:  198 spin: 1
converting .... psi:  199 spin: 1
converting .... psi:  200 spin: 1
converting .... psi:  201 spin: 1
converting .... psi:  202 spin: 1
converting .... psi:  203 spin: 1
converting .... psi:  204 spin: 1
converting .... psi:  205 spin: 1
converting .... psi:  206 spin: 1
converting .... psi:  207 spin: 1
converting .... psi:  208 spin: 1
converting .... psi:  209 spin: 1
converting .... psi:  210 spin: 1
converting .... psi:  211 spin: 1
converting .... psi:  212 spin: 1
converting .... psi:  213 spin: 1
converting .... psi:  214 spin: 1
converting .... psi:  215 spin: 1
converting .... psi:  216 spin: 1
converting .... psi:  217 spin: 1
converting .... psi:  218 spin: 1
converting .... psi:  219 spin: 1
converting .... psi:  220 spin: 1
converting .... psi:  221 spin: 1
converting .... psi:  222 spin: 1
converting .... psi:  223 spin: 1
converting .... psi:  224 spin: 1
converting .... psi:  225 spin: 1
converting .... psi:  226 spin: 1
converting .... psi:  227 spin: 1
converting .... psi:  228 spin: 1
converting .... psi:  229 spin: 1
converting .... psi:  230 spin: 1
converting .... psi:  231 spin: 1
converting .... psi:  232 spin: 1
converting .... psi:  233 spin: 1
converting .... psi:  234 spin: 1
converting .... psi:  235 spin: 1
converting .... psi:  236 spin: 1
converting .... psi:  237 spin: 1
converting .... psi:  238 spin: 1
converting .... psi:  239 spin: 1
converting .... psi:  240 spin: 1
converting .... psi:  241 spin: 1
converting .... psi:  242 spin: 1
converting .... psi:  243 spin: 1
converting .... psi:  244 spin: 1
converting .... psi:  245 spin: 1
converting .... psi:  246 spin: 1
converting .... psi:  247 spin: 1
converting .... psi:  248 spin: 1
converting .... psi:  249 spin: 1
converting .... psi:  250 spin: 1
converting .... psi:  251 spin: 1
converting .... psi:  252 spin: 1
converting .... psi:  253 spin: 1
converting .... psi:  254 spin: 1
converting .... psi:  255 spin: 1
converting .... psi:  256 spin: 1
converting .... psi:  257 spin: 1
converting .... psi:  258 spin: 1
converting .... psi:  259 spin: 1
converting .... psi:  260 spin: 1
converting .... psi:  261 spin: 1
converting .... psi:  262 spin: 1
converting .... psi:  263 spin: 1
converting .... psi:    1 spin: 2
converting .... psi:    2 spin: 2
converting .... psi:    3 spin: 2
converting .... psi:    4 spin: 2
converting .... psi:    5 spin: 2
converting .... psi:    6 spin: 2
converting .... psi:    7 spin: 2
converting .... psi:    8 spin: 2
converting .... psi:    9 spin: 2
converting .... psi:   10 spin: 2
converting .... psi:   11 spin: 2
converting .... psi:   12 spin: 2
converting .... psi:   13 spin: 2
converting .... psi:   14 spin: 2
converting .... psi:   15 spin: 2
converting .... psi:   16 spin: 2
converting .... psi:   17 spin: 2
converting .... psi:   18 spin: 2
converting .... psi:   19 spin: 2
converting .... psi:   20 spin: 2
converting .... psi:   21 spin: 2
converting .... psi:   22 spin: 2
converting .... psi:   23 spin: 2
converting .... psi:   24 spin: 2
converting .... psi:   25 spin: 2
converting .... psi:   26 spin: 2
converting .... psi:   27 spin: 2
converting .... psi:   28 spin: 2
converting .... psi:   29 spin: 2
converting .... psi:   30 spin: 2
converting .... psi:   31 spin: 2
converting .... psi:   32 spin: 2
converting .... psi:   33 spin: 2
converting .... psi:   34 spin: 2
converting .... psi:   35 spin: 2
converting .... psi:   36 spin: 2
converting .... psi:   37 spin: 2
converting .... psi:   38 spin: 2
converting .... psi:   39 spin: 2
converting .... psi:   40 spin: 2
converting .... psi:   41 spin: 2
converting .... psi:   42 spin: 2
converting .... psi:   43 spin: 2
converting .... psi:   44 spin: 2
converting .... psi:   45 spin: 2
converting .... psi:   46 spin: 2
converting .... psi:   47 spin: 2
converting .... psi:   48 spin: 2
converting .... psi:   49 spin: 2
converting .... psi:   50 spin: 2
converting .... psi:   51 spin: 2
converting .... psi:   52 spin: 2
converting .... psi:   53 spin: 2
converting .... psi:   54 spin: 2
converting .... psi:   55 spin: 2
converting .... psi:   56 spin: 2
converting .... psi:   57 spin: 2
converting .... psi:   58 spin: 2
converting .... psi:   59 spin: 2
converting .... psi:   60 spin: 2
converting .... psi:   61 spin: 2
converting .... psi:   62 spin: 2
converting .... psi:   63 spin: 2
converting .... psi:   64 spin: 2
converting .... psi:   65 spin: 2
converting .... psi:   66 spin: 2
converting .... psi:   67 spin: 2
converting .... psi:   68 spin: 2
converting .... psi:   69 spin: 2
converting .... psi:   70 spin: 2
converting .... psi:   71 spin: 2
converting .... psi:   72 spin: 2
converting .... psi:   73 spin: 2
converting .... psi:   74 spin: 2
converting .... psi:   75 spin: 2
converting .... psi:   76 spin: 2
converting .... psi:   77 spin: 2
converting .... psi:   78 spin: 2
converting .... psi:   79 spin: 2
converting .... psi:   80 spin: 2
converting .... psi:   81 spin: 2
converting .... psi:   82 spin: 2
converting .... psi:   83 spin: 2
converting .... psi:   84 spin: 2
converting .... psi:   85 spin: 2
converting .... psi:   86 spin: 2
converting .... psi:   87 spin: 2
converting .... psi:   88 spin: 2
converting .... psi:   89 spin: 2
converting .... psi:   90 spin: 2
converting .... psi:   91 spin: 2
converting .... psi:   92 spin: 2
converting .... psi:   93 spin: 2
converting .... psi:   94 spin: 2
converting .... psi:   95 spin: 2
converting .... psi:   96 spin: 2
converting .... psi:   97 spin: 2
converting .... psi:   98 spin: 2
converting .... psi:   99 spin: 2
converting .... psi:  100 spin: 2
converting .... psi:  101 spin: 2
converting .... psi:  102 spin: 2
converting .... psi:  103 spin: 2
converting .... psi:  104 spin: 2
converting .... psi:  105 spin: 2
converting .... psi:  106 spin: 2
converting .... psi:  107 spin: 2
converting .... psi:  108 spin: 2
converting .... psi:  109 spin: 2
converting .... psi:  110 spin: 2
converting .... psi:  111 spin: 2
converting .... psi:  112 spin: 2
converting .... psi:  113 spin: 2
converting .... psi:  114 spin: 2
converting .... psi:  115 spin: 2
converting .... psi:  116 spin: 2
converting .... psi:  117 spin: 2
converting .... psi:  118 spin: 2
converting .... psi:  119 spin: 2
converting .... psi:  120 spin: 2
converting .... psi:  121 spin: 2
converting .... psi:  122 spin: 2
converting .... psi:  123 spin: 2
converting .... psi:  124 spin: 2
converting .... psi:  125 spin: 2
converting .... psi:  126 spin: 2
converting .... psi:  127 spin: 2
converting .... psi:  128 spin: 2
converting .... psi:  129 spin: 2
converting .... psi:  130 spin: 2
converting .... psi:  131 spin: 2
converting .... psi:  132 spin: 2
converting .... psi:  133 spin: 2
converting .... psi:  134 spin: 2
converting .... psi:  135 spin: 2
converting .... psi:  136 spin: 2
converting .... psi:  137 spin: 2
converting .... psi:  138 spin: 2
converting .... psi:  139 spin: 2
converting .... psi:  140 spin: 2
converting .... psi:  141 spin: 2
converting .... psi:  142 spin: 2
converting .... psi:  143 spin: 2
converting .... psi:  144 spin: 2
converting .... psi:  145 spin: 2
converting .... psi:  146 spin: 2
converting .... psi:  147 spin: 2
converting .... psi:  148 spin: 2
converting .... psi:  149 spin: 2
converting .... psi:  150 spin: 2
converting .... psi:  151 spin: 2
converting .... psi:  152 spin: 2
converting .... psi:  153 spin: 2
converting .... psi:  154 spin: 2
converting .... psi:  155 spin: 2
converting .... psi:  156 spin: 2
converting .... psi:  157 spin: 2
converting .... psi:  158 spin: 2
converting .... psi:  159 spin: 2
converting .... psi:  160 spin: 2
converting .... psi:  161 spin: 2
converting .... psi:  162 spin: 2
converting .... psi:  163 spin: 2
converting .... psi:  164 spin: 2
converting .... psi:  165 spin: 2
converting .... psi:  166 spin: 2
converting .... psi:  167 spin: 2
converting .... psi:  168 spin: 2
converting .... psi:  169 spin: 2
converting .... psi:  170 spin: 2
converting .... psi:  171 spin: 2
converting .... psi:  172 spin: 2
converting .... psi:  173 spin: 2
converting .... psi:  174 spin: 2
converting .... psi:  175 spin: 2
converting .... psi:  176 spin: 2
converting .... psi:  177 spin: 2
converting .... psi:  178 spin: 2
converting .... psi:  179 spin: 2
converting .... psi:  180 spin: 2
converting .... psi:  181 spin: 2
converting .... psi:  182 spin: 2
converting .... psi:  183 spin: 2
converting .... psi:  184 spin: 2
converting .... psi:  185 spin: 2
converting .... psi:  186 spin: 2
converting .... psi:  187 spin: 2
converting .... psi:  188 spin: 2
converting .... psi:  189 spin: 2
converting .... psi:  190 spin: 2
converting .... psi:  191 spin: 2
converting .... psi:  192 spin: 2
converting .... psi:  193 spin: 2
converting .... psi:  194 spin: 2
converting .... psi:  195 spin: 2
converting .... psi:  196 spin: 2
converting .... psi:  197 spin: 2
converting .... psi:  198 spin: 2
converting .... psi:  199 spin: 2
converting .... psi:  200 spin: 2
converting .... psi:  201 spin: 2
converting .... psi:  202 spin: 2
converting .... psi:  203 spin: 2
converting .... psi:  204 spin: 2
converting .... psi:  205 spin: 2
converting .... psi:  206 spin: 2
converting .... psi:  207 spin: 2
converting .... psi:  208 spin: 2
converting .... psi:  209 spin: 2
converting .... psi:  210 spin: 2
converting .... psi:  211 spin: 2
converting .... psi:  212 spin: 2
converting .... psi:  213 spin: 2
converting .... psi:  214 spin: 2
converting .... psi:  215 spin: 2
converting .... psi:  216 spin: 2
converting .... psi:  217 spin: 2
converting .... psi:  218 spin: 2
converting .... psi:  219 spin: 2
converting .... psi:  220 spin: 2
converting .... psi:  221 spin: 2
converting .... psi:  222 spin: 2
converting .... psi:  223 spin: 2
converting .... psi:  224 spin: 2
converting .... psi:  225 spin: 2
converting .... psi:  226 spin: 2
converting .... psi:  227 spin: 2
converting .... psi:  228 spin: 2
converting .... psi:  229 spin: 2
converting .... psi:  230 spin: 2
converting .... psi:  231 spin: 2
converting .... psi:  232 spin: 2
converting .... psi:  233 spin: 2
converting .... psi:  234 spin: 2
converting .... psi:  235 spin: 2
converting .... psi:  236 spin: 2
converting .... psi:  237 spin: 2
converting .... psi:  238 spin: 2
converting .... psi:  239 spin: 2
converting .... psi:  240 spin: 2
converting .... psi:  241 spin: 2
converting .... psi:  242 spin: 2
converting .... psi:  243 spin: 2
converting .... psi:  244 spin: 2
converting .... psi:  245 spin: 2
converting .... psi:  246 spin: 2
converting .... psi:  247 spin: 2
converting .... psi:  248 spin: 2
converting .... psi:  249 spin: 2
converting .... psi:  250 spin: 2
converting .... psi:  251 spin: 2
converting .... psi:  252 spin: 2
converting .... psi:  253 spin: 2
converting .... psi:  254 spin: 2
converting .... psi:  255 spin: 2
converting .... psi:  256 spin: 2
converting .... psi:  257 spin: 2
converting .... psi:  258 spin: 2

 input psi filename:./perm/goethite_Lu82.movecs

 number of processors used:         8
 processor grid           :   8 x   1
 parallel mapping         :2d-hilbert
 parallel mapping         :  balanced
 number of threads        :         1
 parallel io              :       off

 options:
      boundary conditions  = periodic    (version3)
      electron spin        = unrestricted
      exchange-correlation = PBE96 (White and Bird) parameterization

 elements involved in the cluster:
      1: Fe  valence charge:  8.0000  lmax=  2
             comment    : Troullier-Martins pseudopotential
             pseudpotential type            :   0
             highest angular component      :   2
             local potential used           :   0
             number of non-local projections:   8
             semicore corrections included  :  0.800 (radius)  8.944 (charge)
             cutoff =   2.292   2.835   2.292

      2: H   valence charge:  1.0000  lmax=  1
             comment    : Parameterized (Chem.Phys.Lett., vol 322, page 447) Hamman psp
             pseudpotential type            :   0
             highest angular component      :   1
             local potential used           :   1
             number of non-local projections:   1
             cutoff =   0.800   0.800

      3: O   valence charge:  6.0000  lmax=  2
             comment    : Parameterized (Chem.Phys.Lett., vol 322, page 447) Hamman psp
             pseudpotential type            :   0
             highest angular component      :   2
             local potential used           :   2
             number of non-local projections:   4
             cutoff =   0.700   0.700   0.700

      4: Lu  valence charge:25.0  core charge:46.0
             comment    : Parameterized Lu paw (4f5s5p5d5f6s6p projectors, 4/5/2022 by EJB)
             pseudpotential type            :   4
             loggrid parameter r0        : 0.200E-02
             loggrid parameter rmax      : 0.250E+02
             loggrid parameter npoints   :      3000
             augmentation sphere radius  :     2.392 ( 2254 npoints 2254 per task)
             compensation sigma          :     0.346
             total number of projectors  :        27
             n_ps (n) l          eig      #projector
                4 (4) f    -0.386391               7
                1 (5) s    -2.109986               1
                2 (5) p    -1.185266               3
                3 (5) d    -0.078758               5
                5 (5) f     1.000000               7
                2 (6) s    -0.168724               1
                3 (6) p    -0.054943               3


 total charge:   0.000

 atomic composition:
     Fe  :   23     H   :   24     O   :   48     Lu  :    1

 number of electrons: spin up=   263 ( 263 per task)  down=   258 ( 258 per task) (Fourier space)
 number of orbitals : spin up=   263 ( 263 per task)  down=   258 ( 258 per task) (Fourier space)

 supercell:
      cell_name:  cell_default                                      
      lattice:    a1=<  19.023   0.000   0.000 >
                  a2=<   0.000  17.301   0.000 >
                  a3=<   0.000   0.000  17.393 >
      reciprocal: b1=<   0.330   0.000  -0.000 >
                  b2=<  -0.000   0.363  -0.000 >
                  b3=<   0.000   0.000   0.361 >
      lattice:    a=      19.023 b=     17.301 c=      17.393
                  alpha=  90.000 beta=  90.000 gamma=  90.000
                  omega=      5724.4

      density cutoff= 24.000  fft= 48x 40x 40(    16049 waves     2006 per task)
      wavefnc cutoff= 12.000  fft= 48x 40x 40(     5675 waves      709 per task)
      paw integration: xc lmax=  0 compensation charge= two-electron Gaussian
      Ewald summation: cut radius=    3.50  and  8
                       Madelung Wigner-Seitz=    1.75499096 (alpha=    2.82903130 rs=11.09723364)

 technical parameters:
      time step=      5.80     fictitious mass=  400000.0
      tolerance=0.100E-06 (energy)   0.100E-06 (density)
      maximum iterations =       100 (   10 inner     10 outer )





== Energy Calculation ==


          ====== Grassmann conjugate gradient iteration ======
     >>>  ITERATION STARTED AT Thu Jan 19 22:48:25 2023  <<<
    iter.           Energy         DeltaE       DeltaRho 
    ------------------------------------------------------
      10   -0.1819650535E+04   -0.87860E+00    0.17271E-01
 Warning: Lagrange Multiplier generation failed.
         +Try using a smaller time step
         +Gram-Schmidt being performed, spin:                    1
 You may need to do make 64_to_32 and recompile. dneadiag:dsyev err=                 262
 ------------------------------------------------------------------------
 ------------------------------------------------------------------------
  current input line : 
     0: 
 ------------------------------------------------------------------------
 ------------------------------------------------------------------------
 This error has not yet been assigned to a category
 ------------------------------------------------------------------------
 For more information see the NWChem manual at https://nwchemgit.github.io


 For further details see manual section: No section for this category                                                                                                                                                                                                                                   
 You may need to do make 64_to_32 and recompile. dneadiag:dsyev err=                 262
 ------------------------------------------------------------------------
 ------------------------------------------------------------------------
  current input line : 
     0: 
 ------------------------------------------------------------------------
 ------------------------------------------------------------------------
 This error has not yet been assigned to a category
 ------------------------------------------------------------------------
 For more information see the NWChem manual at https://nwchemgit.github.io


 For further details see manual section: No section for this category                                                                                                                                                                                                                                   
 ------------------------------------------------------------------------
 You may need to do make 64_to_32 and recompile. dneadiag:dsyev err=                 262
 ------------------------------------------------------------------------
 ------------------------------------------------------------------------
  current input line : 
   143: task pspw energy
 ------------------------------------------------------------------------
 ------------------------------------------------------------------------
 This error has not yet been assigned to a category
 ------------------------------------------------------------------------
 For more information see the NWChem manual at https://nwchemgit.github.io


 For further details see manual section: No section for this category                                                                                                                                                                                                                                   
 You may need to do make 64_to_32 and recompile. dneadiag:dsyev err=                 262
 ------------------------------------------------------------------------
 ------------------------------------------------------------------------
  current input line : 
     0: 
 ------------------------------------------------------------------------
 ------------------------------------------------------------------------
 This error has not yet been assigned to a category
 ------------------------------------------------------------------------
 For more information see the NWChem manual at https://nwchemgit.github.io


 For further details see manual section: No section for this category                                                                                                                                                                                                                                   
