 argument  1 = Eu1.nw
  NWChem w/ OpenMP: maximum threads =    1



============================== echo of input deck ==============================
title "swnc: e theory=pspw xc=pbe formula=H130O65eu1 charge=0 mult=3"
#machinejob:expert

permanent_dir ./perm
scratch_dir   ./perm

echo

start pspw-pbe-Eu1

memory 2300 mb

charge 0

geometry
Eu 0.0 0.0 0.0
end


nwpw
  simulation_cell
     SC 26.0
     #boundary_conditions aperiodic
  end

  ### pseudopotential block begin ###
  ### pseudopotential block end   ###
  2d-hcurve
  time_step 1.0
  cutoff 80.0
  lmbfgs

  mult 10
  xc pbe96

end
set nwpw:kbpp_ray    .true.
set nwpw:kbpp_filter .true.
#set nwpw:gram-schmidt .true.
set nwpw:cif_filename Eu1

#task pspw steepest_descent
task pspw energy ignore

================================================================================


                                         
                                         


             Northwest Computational Chemistry Package (NWChem) 7.2.0
             --------------------------------------------------------


                    Environmental Molecular Sciences Laboratory
                       Pacific Northwest National Laboratory
                                Richland, WA 99352

                              Copyright (c) 1994-2022
                       Pacific Northwest National Laboratory
                            Battelle Memorial Institute

             NWChem is an open-source computational chemistry package
                        distributed under the terms of the
                      Educational Community License (ECL) 2.0
             A copy of the license is included with this distribution
                              in the LICENSE.TXT file

                                  ACKNOWLEDGMENT
                                  --------------

            This software and its documentation were developed at the
            EMSL at Pacific Northwest National Laboratory, a multiprogram
            national laboratory, operated for the U.S. Department of Energy
            by Battelle under Contract Number DE-AC05-76RL01830. Support
            for this work was provided by the Department of Energy Office
            of Biological and Environmental Research, Office of Basic
            Energy Sciences, and the Office of Advanced Scientific Computing.


           Job information
           ---------------

    hostname        = WE45090U
    program         = nwchem
    date            = Tue Apr 25 14:38:43 2023

    compiled        = Tue_Apr_25_14:35:41_2023
    source          = /home/bylaska/nwchem-releases/nwchem
    nwchem branch   = 7.2.0
    nwchem revision = v7.2.0-beta1-403-gd681ac3cc4
    ga revision     = 5.8.0
    use scalapack   = F
    input           = Eu1.nw
    prefix          = pspw-pbe-Eu1.
    data base       = ./perm/pspw-pbe-Eu1.db
    status          = startup
    nproc           =        8
    time left       =     -1s



           Memory information
           ------------------

    heap     =   75366400 doubles =    575.0 Mbytes
    stack    =   75366397 doubles =    575.0 Mbytes
    global   =  150732800 doubles =   1150.0 Mbytes (distinct from heap & stack)
    total    =  301465597 doubles =   2300.0 Mbytes
    verify   = yes
    hardfail = no 


           Directory information
           ---------------------

  0 permanent = ./perm
  0 scratch   = ./perm




                                NWChem Input Module
                                -------------------


           swnc: e theory=pspw xc=pbe formula=H130O65eu1 charge=0 mult=3
           -------------------------------------------------------------

 Scaling coordinates for geometry "geometry" by  1.889725989
 (inverse scale =  0.529177249)



                             Geometry "geometry" -> ""
                             -------------------------

 Output coordinates in angstroms (scale by  1.889725989 to convert to a.u.)

  No.       Tag          Charge          X              Y              Z
 ---- ---------------- ---------- -------------- -------------- --------------
    1 Eu                  63.0000     0.00000000     0.00000000     0.00000000

      Atomic Mass 
      ----------- 

      Eu               152.920900


 Effective nuclear repulsion energy (a.u.)       0.0000000000

            Nuclear Dipole moment (a.u.) 
            ----------------------------
        X                 Y               Z
 ---------------- ---------------- ----------------
     0.0000000000     0.0000000000     0.0000000000


            XYZ format geometry
            -------------------
     1
 geometry
 Eu                    0.00000000     0.00000000     0.00000000

          ****************************************************
          *                                                  *
          *               NWPW PSPW Calculation              *
          *                                                  *
          * [ (Grassmann/Stiefel manifold implementation)  ] *
          *                                                  *
          *      [ NorthWest Chemistry implementation ]      *
          *                                                  *
          *            version #5.10   06/12/02              *
          *                                                  *
          *    This code was developed by Eric J. Bylaska,   *
          *    and was based upon algorithms and code        *
          *    developed by the group of Prof. John H. Weare *
          *                                                  *
          ****************************************************
     >>>  JOB STARTED       AT Tue Apr 25 14:38:43 2023  <<<
          ================ input data ========================
  library name resolved from: compiled reference
  NWCHEM_NWPW_LIBRARY set to: </home/bylaska/nwchem-releases/nwchem/src/nwpw/libraryps/>
 Generating 1d pseudopotential for Eu  

 Generated formatted_filename: ./perm/Eu.vpp
 - filtering pseudopotential -
 random planewave guess, initial psi:pspw-pbe-Eu1.movecs                               
 -   spin, nalpha, nbeta:                    2                   13                    4

 input psi filename:./perm/pspw-pbe-Eu1.movecs

 Warning - K.S. orbitals are not orthonormal. Applying Gram-Schmidt orthonormalization.
         - exact norm=0.170000E+02 norm=0.109563E+02 corrected norm=0.170000E+02 (error=0.604370E+01)


 number of processors used:         8
 processor grid           :   8 x   1
 parallel mapping         : 2d-hcurve
 parallel mapping         :  balanced
 number of threads        :         1
 parallel io              :       off

 options:
      boundary conditions  = periodic    (version3)
      electron spin        = unrestricted
      exchange-correlation = PBE96 (White and Bird) parameterization

 elements involved in the cluster:
      1: Eu  valence charge: 17.0000  lmax=  3
             comment    : Parameterized Eu TM psp (4f5s5p5d6s6p projectors, 4/6/2022 by EJB)
             pseudpotential type            :   0
             highest angular component      :   3
             local potential used           :   0
             number of non-local projections:  25
             semicore corrections included  :  0.900 (radius) 10.470 (charge)
             cutoff =   1.618   1.828   3.813   1.403


 total charge:   0.000

 atomic composition:
     Eu  :    1

 number of electrons: spin up=    13 (  13 per task)  down=     4 (   4 per task) (Fourier space)
 number of orbitals : spin up=    13 (  13 per task)  down=     4 (   4 per task) (Fourier space)

 supercell:
      cell_name:  cell_default                                      
      lattice:    a1=<  26.000   0.000   0.000 >
                  a2=<   0.000  26.000   0.000 >
                  a3=<   0.000   0.000  26.000 >
      reciprocal: b1=<   0.242   0.000   0.000 >
                  b2=<   0.000   0.242   0.000 >
                  b3=<   0.000   0.000   0.242 >
      lattice:    a=      26.000 b=     26.000 c=      26.000
                  alpha=  90.000 beta=  90.000 gamma=  90.000
                  omega=     17576.0

      density cutoff= 40.000  fft= 80x 80x 80(   106048 waves    13256 per task)
      wavefnc cutoff= 20.000  fft= 80x 80x 80(    37447 waves     4680 per task)
      Ewald summation: cut radius=    8.28  and  1
                       Madelung Wigner-Seitz=    1.76011888 (alpha=    2.83729748 rs=16.12911276)

 technical parameters:
      time step=      1.00     fictitious mass=  400000.0
      tolerance=0.100E-06 (energy)   0.100E-06 (density)
      maximum iterations =      1000 (   10 inner    100 outer )





== Energy Calculation ==


          ============ Grassmann lmbfgs iteration ============
     >>>  ITERATION STARTED AT Tue Apr 25 14:38:45 2023  <<<
    iter.           Energy         DeltaE       DeltaRho 
    ------------------------------------------------------
     -  15 steepest descent iterations performed
      10   -0.9421385572E+02   -0.17537E+01    0.47425E+01
     -  10 steepest descent iterations performed
      20   -0.9853414981E+02   -0.71116E-01    0.81950E-01
     -  10 steepest descent iterations performed
      30   -0.9880401556E+02   -0.15024E-01    0.55845E-02
     -  10 steepest descent iterations performed
      40   -0.9886904751E+02   -0.18760E-02    0.10233E-02
      50   -0.9888003151E+02   -0.13242E-03    0.10295E-03
      60   -0.9888041580E+02   -0.10611E-04    0.54148E-05
      70   -0.9888044746E+02   -0.57560E-06    0.25687E-06
      80   -0.9888044897E+02   -0.82060E-07    0.11354E-07
  *** tolerance ok. iteration terminated
     >>>  ITERATION ENDED   AT Tue Apr 25 14:39:11 2023  <<<


==  Summary Of Results  ==

 number of electrons: spin up=   13.00000  down=    4.00000 (real space)

 total     energy    :  -0.9888044897E+02 (   -0.98880E+02/ion)
 total orbital energy:  -0.2039475342E+02 (   -0.11997E+01/electron)
 hartree   energy    :   0.5361587867E+02 (    0.31539E+01/electron)
 exc-corr  energy    :  -0.2169558098E+02 (   -0.12762E+01/electron)
 ion-ion   energy    :  -0.1576882638E+02 (   -0.15769E+02/ion)

 kinetic (planewave) :   0.2136191458E+02 (    0.12566E+01/electron)
 V_local (planewave) :  -0.1377620335E+03 (   -0.81036E+01/electron)
 V_nl    (planewave) :   0.1368198644E+01 (    0.80482E-01/electron)
 V_Coul  (planewave) :   0.1072317573E+03 (    0.63078E+01/electron)
 V_xc.   (planewave) :  -0.1259459047E+02 (   -0.74086E+00/electron)
 Virial Coefficient  :  -0.1954724978E+01

 orbital energies:
    -0.1631680E+00 (  -4.440eV)
    -0.1631686E+00 (  -4.440eV)
    -0.1631702E+00 (  -4.440eV)
    -0.4151255E+00 ( -11.296eV)
    -0.5187320E+00 ( -14.116eV)
    -0.5187331E+00 ( -14.116eV)
    -0.5189374E+00 ( -14.121eV)
    -0.5189376E+00 ( -14.121eV)
    -0.5189402E+00 ( -14.121eV)
    -0.1909682E+01 ( -51.965eV)    -0.1804177E+01 ( -49.095eV)
    -0.1909684E+01 ( -51.966eV)    -0.1804180E+01 ( -49.095eV)
    -0.1909685E+01 ( -51.966eV)    -0.1804180E+01 ( -49.095eV)
    -0.2920398E+01 ( -79.469eV)    -0.2833855E+01 ( -77.114eV)

 Total PSPW energy     :  -0.9888044897E+02


=== Spin Contamination ===

 <Sexact^2> =    24.750000000000000     
 <S^2>      =    24.751060917283137     



== Center of Charge ==

spin up     (    0.0000,    0.0000,    0.0000 )
spin down   (   -0.0000,   -0.0000,    0.0000 )
     total  (    0.0000,    0.0000,    0.0000 )
ionic       (    0.0000,    0.0000,    0.0000 )


== Molecular Dipole wrt Center of Mass ==

mu   =  (   -0.0006,   -0.0002,   -0.0004 ) au
|mu| =     0.0007 au,       0.0018 Debye

 output psi filename:./perm/pspw-pbe-Eu1.movecs

 Writing Crystallographic Information File:./perm/Eu1.cif
   - cell not shifted (nwpw:cif_shift_cell .false.)


== Timing ==

cputime in seconds
  prologue    :   0.174037E+01
  main loop   :   0.258064E+02
  epilogue    :   0.156820E+00
  total       :   0.277036E+02
  cputime/step:   0.118378E+00       (     218 evalulations,      76 linesearches)


Time spent doing                        total          step       percent
  total time                 :   0.277079E+02  0.127100E+00       100.0 %
  i/o time                   :   0.172001E+01  0.788995E-02         6.2 %
  FFTs                       :   0.437218E+01  0.200559E-01        15.8 %
  dot products               :   0.529796E+00  0.243026E-02         1.9 %
  geodesic                   :   0.978071E+00  0.448656E-02         3.5 %
  ffm_dgemm                  :   0.165690E+00  0.760044E-03         0.6 %
  fmf_dgemm                  :   0.766243E+00  0.351488E-02         2.8 %
  mmm_dgemm                  :   0.698151E-02  0.320253E-04         0.0 %
  m_diagonalize              :   0.392014E-02  0.179823E-04         0.0 %
  exchange correlation       :   0.114437E+02  0.524941E-01        41.3 %
  local pseudopotentials     :   0.356959E-03  0.163743E-05         0.0 %
  non-local pseudopotentials :   0.841022E+00  0.385790E-02         3.0 %
  hartree potentials         :   0.543895E-01  0.249493E-03         0.2 %
  ion-ion interaction        :   0.503376E-02  0.230906E-04         0.0 %
  structure factors          :   0.269701E-01  0.123716E-03         0.1 %
  phase factors              :   0.550600E-05  0.252569E-07         0.0 %
  masking and packing        :   0.170456E+01  0.781908E-02         6.2 %
  queue fft                  :   0.843064E+01  0.386727E-01        30.4 %
  queue fft (serial)         :   0.258376E+01  0.118521E-01         9.3 %
  queue fft (message passing):   0.536385E+01  0.246048E-01        19.4 %
  non-local psp FFM          :   0.496598E+00  0.227797E-02         1.8 %
  non-local psp FMF          :   0.251061E+00  0.115165E-02         0.9 %
  non-local psp FFM A        :   0.223329E+00  0.102445E-02         0.8 %
  non-local psp FFM B        :   0.227513E+00  0.104364E-02         0.8 %

     >>>  JOB COMPLETED     AT Tue Apr 25 14:39:11 2023  <<<
          ****************************************************
          *                                                  *
          *               NWPW PSPW Calculation              *
          *                                                  *
          * [ (Grassmann/Stiefel manifold implementation)  ] *
          *                                                  *
          *      [ NorthWest Chemistry implementation ]      *
          *                                                  *
          *            version #5.10   06/12/02              *
          *                                                  *
          *    This code was developed by Eric J. Bylaska,   *
          *    and was based upon algorithms and code        *
          *    developed by the group of Prof. John H. Weare *
          *                                                  *
          ****************************************************
     >>>  JOB STARTED       AT Tue Apr 25 14:39:11 2023  <<<
          ================ input data ========================
 pseudopotential is not correctly formatted:Eu.vpp                                            

 Generated formatted_filename: ./perm/Eu.vpp
 - filtering pseudopotential -
 Error reading psi - bad grid
 nfft :                   80                   80                   80
 ngrid:                  108                  108                  108
 Error reading psi - bad grid
 nfft :                   80                   80                   80
 ngrid:                  108                  108                  108
 Error reading psi - bad grid

 Grid is being converted:
 ------------------------

 To turn off automatic grid conversion:

 set nwpw:psi_nogrid .false.

 old_filename: pspw-pbe-Eu1.movecs                               
 new_filename: pspw-pbe-Eu1.movecs                               
 converting  :  80x 80x 80 --> 108x108x108
converting .... psi:    1 spin: 1
converting .... psi:    2 spin: 1
converting .... psi:    3 spin: 1
converting .... psi:    4 spin: 1
converting .... psi:    5 spin: 1
converting .... psi:    6 spin: 1
converting .... psi:    7 spin: 1
converting .... psi:    8 spin: 1
converting .... psi:    9 spin: 1
converting .... psi:   10 spin: 1
converting .... psi:   11 spin: 1
converting .... psi:   12 spin: 1
converting .... psi:   13 spin: 1
converting .... psi:    1 spin: 2
converting .... psi:    2 spin: 2
converting .... psi:    3 spin: 2
converting .... psi:    4 spin: 2

 input psi filename:./perm/pspw-pbe-Eu1.movecs

 number of processors used:         8
 processor grid           :   8 x   1
 parallel mapping         : 2d-hcurve
 parallel mapping         :  balanced
 number of threads        :         1
 parallel io              :       off

 options:
      boundary conditions  = periodic    (version3)
      electron spin        = unrestricted
      exchange-correlation = PBE96 (White and Bird) parameterization

 elements involved in the cluster:
      1: Eu  valence charge: 17.0000  lmax=  3
             comment    : Parameterized Eu TM psp (4f5s5p5d6s6p projectors, 4/6/2022 by EJB)
             pseudpotential type            :   0
             highest angular component      :   3
             local potential used           :   0
             number of non-local projections:  25
             semicore corrections included  :  0.900 (radius) 10.477 (charge)
             cutoff =   1.618   1.828   3.813   1.403


 total charge:   0.000

 atomic composition:
     Eu  :    1

 number of electrons: spin up=    13 (  13 per task)  down=     4 (   4 per task) (Fourier space)
 number of orbitals : spin up=    13 (  13 per task)  down=     4 (   4 per task) (Fourier space)

 supercell:
      cell_name:  cell_default                                      
      lattice:    a1=<  26.000   0.000   0.000 >
                  a2=<   0.000  26.000   0.000 >
                  a3=<   0.000   0.000  26.000 >
      reciprocal: b1=<   0.242   0.000   0.000 >
                  b2=<   0.000   0.242   0.000 >
                  b3=<   0.000   0.000   0.242 >
      lattice:    a=      26.000 b=     26.000 c=      26.000
                  alpha=  90.000 beta=  90.000 gamma=  90.000
                  omega=     17576.0

      density cutoff= 80.000  fft=108x108x108(   300163 waves    37520 per task)
      wavefnc cutoff= 40.000  fft=108x108x108(   106048 waves    13256 per task)
      Ewald summation: cut radius=    8.28  and  1
                       Madelung Wigner-Seitz=    1.76011888 (alpha=    2.83729748 rs=16.12911276)

 technical parameters:
      time step=      1.00     fictitious mass=  400000.0
      tolerance=0.100E-06 (energy)   0.100E-06 (density)
      maximum iterations =      1000 (   10 inner    100 outer )





== Energy Calculation ==


          ============ Grassmann lmbfgs iteration ============
     >>>  ITERATION STARTED AT Tue Apr 25 14:39:15 2023  <<<
    iter.           Energy         DeltaE       DeltaRho 
    ------------------------------------------------------
      10   -0.9889300736E+02   -0.49304E-04    0.57128E-03
      20   -0.9889317621E+02   -0.49694E-05    0.40794E-05
      30   -0.9890079209E+02   -0.37820E-02    0.22498E-01
     -  10 steepest descent iterations performed
      40   -0.9961141775E+02   -0.33867E-01    0.19535E+00
     -  10 steepest descent iterations performed
      50   -0.9973993084E+02   -0.37800E-02    0.56894E-02
      60   -0.9977693916E+02   -0.30023E-02    0.17976E-01
      70   -0.9979176094E+02   -0.67877E-03    0.88628E-02
      80   -0.9979537871E+02   -0.17529E-03    0.19193E-02
      90   -0.9979675778E+02   -0.15306E-03    0.18871E-02
     100   -0.9980087791E+02   -0.63222E-03    0.38717E-01
     -  10 steepest descent iterations performed
     110   -0.9980417179E+02   -0.25298E-03    0.52286E-03
     120   -0.9980633153E+02   -0.19810E-03    0.27503E-02
     130   -0.9980812305E+02   -0.12945E-03    0.47640E-02
     140   -0.9980909033E+02   -0.81596E-04    0.23356E-02
     150   -0.9980947053E+02   -0.23350E-04    0.62440E-03
     160   -0.9980967234E+02   -0.13144E-04    0.43799E-03
     170   -0.9980979064E+02   -0.74783E-05    0.28166E-03
     180   -0.9980989525E+02   -0.11148E-04    0.41960E-03
     -  10 steepest descent iterations performed
     190   -0.9980995443E+02   -0.54934E-05    0.18220E-04
     200   -0.9980999472E+02   -0.34607E-05    0.61064E-04
     210   -0.9981002024E+02   -0.18257E-05    0.61059E-04
     220   -0.9981004043E+02   -0.24639E-05    0.78458E-04
     -  10 steepest descent iterations performed
     230   -0.9981005024E+02   -0.75230E-06    0.22392E-05
     240   -0.9981005846E+02   -0.80801E-06    0.17565E-04
     -  10 steepest descent iterations performed
     250   -0.9981006257E+02   -0.36033E-06    0.11878E-05
     260   -0.9981006673E+02   -0.50341E-06    0.10983E-04
     -  10 steepest descent iterations performed
     270   -0.9981007028E+02   -0.29296E-06    0.80396E-06
     280   -0.9981007287E+02   -0.24398E-06    0.50072E-05
     290   -0.9981008402E+02   -0.22452E-06    0.16164E-03
     300   -0.9981008507E+02   -0.62408E-07    0.12146E-05
     310   -0.9981008510E+02   -0.32814E-07    0.11543E-08
  *** tolerance ok. iteration terminated
     >>>  ITERATION ENDED   AT Tue Apr 25 14:44:44 2023  <<<


==  Summary Of Results  ==

 number of electrons: spin up=   13.00000  down=    4.00000 (real space)

 total     energy    :  -0.9981008510E+02 (   -0.99810E+02/ion)
 total orbital energy:  -0.1387399416E+02 (   -0.81612E+00/electron)
 hartree   energy    :   0.6123000468E+02 (    0.36018E+01/electron)
 exc-corr  energy    :  -0.2307323841E+02 (   -0.13572E+01/electron)
 ion-ion   energy    :  -0.1576882638E+02 (   -0.15769E+02/ion)

 kinetic (planewave) :   0.4291148279E+02 (    0.25242E+01/electron)
 V_local (planewave) :  -0.1471022521E+03 (   -0.86531E+01/electron)
 V_nl    (planewave) :  -0.1800725563E+02 (   -0.10593E+01/electron)
 V_Coul  (planewave) :   0.1224600094E+03 (    0.72035E+01/electron)
 V_xc.   (planewave) :  -0.1413597853E+02 (   -0.83153E+00/electron)
 Virial Coefficient  :  -0.1323316587E+01

 orbital energies:
    -0.1155744E+00 (  -3.145eV)
    -0.1155795E+00 (  -3.145eV)
    -0.1155873E+00 (  -3.145eV)
    -0.1945773E+00 (  -5.295eV)
    -0.1945785E+00 (  -5.295eV)
    -0.1945833E+00 (  -5.295eV)
    -0.1949643E+00 (  -5.305eV)
    -0.1949695E+00 (  -5.305eV)
    -0.2174796E+00 (  -5.918eV)
    -0.1370904E+01 ( -37.304eV)    -0.1238425E+01 ( -33.700eV)
    -0.1370916E+01 ( -37.305eV)    -0.1238446E+01 ( -33.700eV)
    -0.1370918E+01 ( -37.305eV)    -0.1238453E+01 ( -33.700eV)
    -0.2314754E+01 ( -62.988eV)    -0.2193285E+01 ( -59.683eV)

 Total PSPW energy     :  -0.9981008510E+02


=== Spin Contamination ===

 <Sexact^2> =    24.750000000000000     
 <S^2>      =    24.750488240893446     



== Center of Charge ==

spin up     (   -0.0000,   -0.0000,   -0.0000 )
spin down   (   -0.0000,   -0.0000,   -0.0000 )
     total  (   -0.0000,   -0.0000,   -0.0000 )
ionic       (    0.0000,    0.0000,    0.0000 )


== Molecular Dipole wrt Center of Mass ==

mu   =  (    0.0001,    0.0001,    0.0001 ) au
|mu| =     0.0002 au,       0.0004 Debye

 output psi filename:./perm/pspw-pbe-Eu1.movecs

 Writing Crystallographic Information File:./perm/Eu1.cif
   - cell not shifted (nwpw:cif_shift_cell .false.)


== Timing ==

cputime in seconds
  prologue    :   0.411155E+01
  main loop   :   0.329082E+03
  epilogue    :   0.357755E+00
  total       :   0.333551E+03
  cputime/step:   0.436448E+00       (     754 evalulations,     301 linesearches)


Time spent doing                        total          step       percent
  total time                 :   0.333556E+03  0.442382E+00       100.0 %
  i/o time                   :   0.397397E+01  0.527052E-02         1.2 %
  FFTs                       :   0.653228E+02  0.866350E-01        19.6 %
  dot products               :   0.557390E+01  0.739243E-02         1.7 %
  geodesic                   :   0.151488E+02  0.200912E-01         4.5 %
  ffm_dgemm                  :   0.157197E+01  0.208484E-02         0.5 %
  fmf_dgemm                  :   0.126329E+02  0.167545E-01         3.8 %
  mmm_dgemm                  :   0.590323E-01  0.782922E-04         0.0 %
  m_diagonalize              :   0.163306E-01  0.216586E-04         0.0 %
  exchange correlation       :   0.138480E+03  0.183660E+00        41.5 %
  local pseudopotentials     :   0.114807E-02  0.152265E-05         0.0 %
  non-local pseudopotentials :   0.990282E+01  0.131337E-01         3.0 %
  hartree potentials         :   0.590323E+00  0.782922E-03         0.2 %
  ion-ion interaction        :   0.655816E-01  0.869782E-04         0.0 %
  structure factors          :   0.240299E+00  0.318699E-03         0.1 %
  phase factors              :   0.727000E-05  0.964191E-08         0.0 %
  masking and packing        :   0.223907E+02  0.296958E-01         6.7 %
  queue fft                  :   0.119340E+03  0.158276E+00        35.8 %
  queue fft (serial)         :   0.350428E+02  0.464759E-01        10.5 %
  queue fft (message passing):   0.789157E+02  0.104663E+00        23.7 %
  non-local psp FFM          :   0.410928E+01  0.544997E-02         1.2 %
  non-local psp FMF          :   0.353991E+01  0.469484E-02         1.1 %
  non-local psp FFM A        :   0.219272E+01  0.290812E-02         0.7 %
  non-local psp FFM B        :   0.167798E+01  0.222543E-02         0.5 %

     >>>  JOB COMPLETED     AT Tue Apr 25 14:44:44 2023  <<<
          ****************************************************
          *                                                  *
          *               NWPW PSPW Calculation              *
          *                                                  *
          * [ (Grassmann/Stiefel manifold implementation)  ] *
          *                                                  *
          *      [ NorthWest Chemistry implementation ]      *
          *                                                  *
          *            version #5.10   06/12/02              *
          *                                                  *
          *    This code was developed by Eric J. Bylaska,   *
          *    and was based upon algorithms and code        *
          *    developed by the group of Prof. John H. Weare *
          *                                                  *
          ****************************************************
     >>>  JOB STARTED       AT Tue Apr 25 14:44:44 2023  <<<
          ================ input data ========================
 pseudopotential is not correctly formatted:Eu.vpp                                            

 Generated formatted_filename: ./perm/Eu.vpp
 - filtering pseudopotential -
 Error reading psi - bad grid
 nfft :                  108                  108                  108
 ngrid:                  140                  140                  140
 Error reading psi - bad grid
 nfft :                  108                  108                  108
 ngrid:                  140                  140                  140
 Error reading psi - bad grid

 Grid is being converted:
 ------------------------

 To turn off automatic grid conversion:

 set nwpw:psi_nogrid .false.

 old_filename: pspw-pbe-Eu1.movecs                               
 new_filename: pspw-pbe-Eu1.movecs                               
 converting  : 108x108x108 --> 140x140x140
converting .... psi:    1 spin: 1
converting .... psi:    2 spin: 1
converting .... psi:    3 spin: 1
converting .... psi:    4 spin: 1
converting .... psi:    5 spin: 1
converting .... psi:    6 spin: 1
converting .... psi:    7 spin: 1
converting .... psi:    8 spin: 1
converting .... psi:    9 spin: 1
converting .... psi:   10 spin: 1
converting .... psi:   11 spin: 1
converting .... psi:   12 spin: 1
converting .... psi:   13 spin: 1
converting .... psi:    1 spin: 2
converting .... psi:    2 spin: 2
converting .... psi:    3 spin: 2
converting .... psi:    4 spin: 2

 input psi filename:./perm/pspw-pbe-Eu1.movecs

 number of processors used:         8
 processor grid           :   8 x   1
 parallel mapping         : 2d-hcurve
 parallel mapping         :  balanced
 number of threads        :         1
 parallel io              :       off

 options:
      boundary conditions  = periodic    (version3)
      electron spin        = unrestricted
      exchange-correlation = PBE96 (White and Bird) parameterization

 elements involved in the cluster:
      1: Eu  valence charge: 17.0000  lmax=  3
             comment    : Parameterized Eu TM psp (4f5s5p5d6s6p projectors, 4/6/2022 by EJB)
             pseudpotential type            :   0
             highest angular component      :   3
             local potential used           :   0
             number of non-local projections:  25
             semicore corrections included  :  0.900 (radius) 10.478 (charge)
             cutoff =   1.618   1.828   3.813   1.403


 total charge:   0.000

 atomic composition:
     Eu  :    1

 number of electrons: spin up=    13 (  13 per task)  down=     4 (   4 per task) (Fourier space)
 number of orbitals : spin up=    13 (  13 per task)  down=     4 (   4 per task) (Fourier space)

 supercell:
      cell_name:  cell_default                                      
      lattice:    a1=<  26.000   0.000   0.000 >
                  a2=<   0.000  26.000   0.000 >
                  a3=<   0.000   0.000  26.000 >
      reciprocal: b1=<   0.242   0.000   0.000 >
                  b2=<   0.000   0.242   0.000 >
                  b3=<   0.000   0.000   0.242 >
      lattice:    a=      26.000 b=     26.000 c=      26.000
                  alpha=  90.000 beta=  90.000 gamma=  90.000
                  omega=     17576.0

      density cutoff=120.000  fft=140x140x140(   551891 waves    68986 per task)
      wavefnc cutoff= 60.000  fft=140x140x140(   195216 waves    24402 per task)
      Ewald summation: cut radius=    8.28  and  1
                       Madelung Wigner-Seitz=    1.76011888 (alpha=    2.83729748 rs=16.12911276)

 technical parameters:
      time step=      1.00     fictitious mass=  400000.0
      tolerance=0.100E-06 (energy)   0.100E-06 (density)
      maximum iterations =      1000 (   10 inner    100 outer )





== Energy Calculation ==


          ============ Grassmann lmbfgs iteration ============
     >>>  ITERATION STARTED AT Tue Apr 25 14:44:55 2023  <<<
    iter.           Energy         DeltaE       DeltaRho 
    ------------------------------------------------------
      10   -0.1033252337E+03   -0.68324E-02    0.41852E+00
     -  10 steepest descent iterations performed
      20   -0.1033359650E+03   -0.13613E-03    0.18483E-03
      30   -0.1033363836E+03   -0.13212E-04    0.42124E-04
      40   -0.1033409464E+03   -0.42450E-02    0.19268E-01
     -  10 steepest descent iterations performed
      50   -0.1039642318E+03   -0.57407E-01    0.29751E+00
     -  10 steepest descent iterations performed
      60   -0.1044765380E+03   -0.29305E-01    0.16727E+00
     -  10 steepest descent iterations performed
      70   -0.1046157647E+03   -0.51772E-02    0.17508E-01
      80   -0.1046911943E+03   -0.41479E-02    0.23291E-01
      90   -0.1047219526E+03   -0.29565E-02    0.94305E-02
     100   -0.1047479570E+03   -0.21544E-02    0.72499E-02
     110   -0.1047690468E+03   -0.19845E-02    0.40363E-02
     120   -0.1047799077E+03   -0.61854E-03    0.82431E-03
     130   -0.1047850248E+03   -0.44423E-03    0.44642E-03
     140   -0.1047885300E+03   -0.26079E-03    0.34873E-03
     150   -0.1047904112E+03   -0.13747E-03    0.18875E-03
     160   -0.1047915250E+03   -0.85668E-04    0.11116E-03
     170   -0.1047921961E+03   -0.53152E-04    0.52645E-04
     180   -0.1047926105E+03   -0.31151E-04    0.30637E-04
     190   -0.1047928563E+03   -0.19211E-04    0.14572E-04
     200   -0.1047930029E+03   -0.10813E-04    0.85794E-05
     210   -0.1047930883E+03   -0.71886E-05    0.50771E-05
     220   -0.1047931442E+03   -0.44762E-05    0.37597E-05
     230   -0.1047931820E+03   -0.32851E-05    0.25487E-05
     240   -0.1047932114E+03   -0.26453E-05    0.20596E-05
     250   -0.1047932385E+03   -0.26233E-05    0.23344E-05
     260   -0.1047932676E+03   -0.30134E-05    0.38361E-05
     -  10 steepest descent iterations performed
     270   -0.1047932956E+03   -0.32466E-05    0.42077E-06
     -  10 steepest descent iterations performed
     280   -0.1047933088E+03   -0.74197E-06    0.91188E-07
     290   -0.1047933309E+03   -0.27785E-05    0.18236E-05
     -  10 steepest descent iterations performed
     300   -0.1047933394E+03   -0.62056E-06    0.41366E-07
     310   -0.1047933527E+03   -0.22243E-05    0.88318E-06
     -  10 steepest descent iterations performed
     320   -0.1047933627E+03   -0.44353E-06    0.35375E-07
     330   -0.1047933706E+03   -0.99034E-06    0.29705E-06
     -  10 steepest descent iterations performed
     340   -0.1047933778E+03   -0.53509E-06    0.39557E-07
     350   -0.1047933868E+03   -0.13315E-05    0.55748E-06
     -  10 steepest descent iterations performed
     360   -0.1047933957E+03   -0.46128E-06    0.31082E-07
     370   -0.1047934026E+03   -0.79571E-06    0.22899E-06
     -  10 steepest descent iterations performed
     380   -0.1047934094E+03   -0.57464E-06    0.42082E-07
     390   -0.1047934178E+03   -0.11437E-05    0.48067E-06
     -  10 steepest descent iterations performed
     400   -0.1047934261E+03   -0.47923E-06    0.30799E-07
     410   -0.1047934326E+03   -0.70175E-06    0.20871E-06
     -  10 steepest descent iterations performed
     420   -0.1047934391E+03   -0.58572E-06    0.42765E-07
     430   -0.1047934469E+03   -0.10235E-05    0.43489E-06
     -  10 steepest descent iterations performed
     440   -0.1047934547E+03   -0.47855E-06    0.29704E-07
     450   -0.1047934608E+03   -0.63223E-06    0.19269E-06
     -  10 steepest descent iterations performed
     460   -0.1047934670E+03   -0.57840E-06    0.42105E-07
     470   -0.1047934742E+03   -0.92666E-06    0.39653E-06
     -  10 steepest descent iterations performed
     480   -0.1047934815E+03   -0.46456E-06    0.28423E-07
     490   -0.1047934872E+03   -0.57280E-06    0.17790E-06
     -  10 steepest descent iterations performed
     500   -0.1047934930E+03   -0.55760E-06    0.40703E-07
     510   -0.1047934997E+03   -0.84004E-06    0.36172E-06
     -  10 steepest descent iterations performed
     520   -0.1047935065E+03   -0.44341E-06    0.27110E-07
     530   -0.1047935118E+03   -0.51908E-06    0.16367E-06
     -  10 steepest descent iterations performed
     540   -0.1047935171E+03   -0.52881E-06    0.38881E-07
     -  10 steepest descent iterations performed
     550   -0.1047935202E+03   -0.46452E-06    0.37500E-07
     560   -0.1047935928E+03   -0.79137E-05    0.62953E-04
     -  10 steepest descent iterations performed
     570   -0.1047936423E+03   -0.24940E-05    0.91705E-07
     580   -0.1047936440E+03   -0.11714E-06    0.21817E-07
     590   -0.1047936514E+03   -0.99908E-06    0.12374E-05
     -  10 steepest descent iterations performed
     600   -0.1047936577E+03   -0.43623E-06    0.27925E-07
     610   -0.1047936578E+03   -0.98385E-07    0.10099E-09
  *** tolerance ok. iteration terminated
     >>>  ITERATION ENDED   AT Tue Apr 25 15:16:46 2023  <<<


==  Summary Of Results  ==

 number of electrons: spin up=   13.00000  down=    4.00000 (real space)

 total     energy    :  -0.1047936578E+03 (   -0.10479E+03/ion)
 total orbital energy:  -0.9066567298E+01 (   -0.53333E+00/electron)
 hartree   energy    :   0.7108436460E+02 (    0.41814E+01/electron)
 exc-corr  energy    :  -0.2554026721E+02 (   -0.15024E+01/electron)
 ion-ion   energy    :  -0.1576882638E+02 (   -0.15769E+02/ion)

 kinetic (planewave) :   0.9317075185E+02 (    0.54806E+01/electron)
 V_local (planewave) :  -0.1533368368E+03 (   -0.90198E+01/electron)
 V_nl    (planewave) :  -0.7440284393E+02 (   -0.43766E+01/electron)
 V_Coul  (planewave) :   0.1421687292E+03 (    0.83629E+01/electron)
 V_xc.   (planewave) :  -0.1666636766E+02 (   -0.98037E+00/electron)
 Virial Coefficient  :  -0.1097311303E+01

 orbital energies:
    -0.6484964E-01 (  -1.765eV)
    -0.8583805E-01 (  -2.336eV)
    -0.8649226E-01 (  -2.354eV)
    -0.8823638E-01 (  -2.401eV)
    -0.9061712E-01 (  -2.466eV)
    -0.9258847E-01 (  -2.519eV)
    -0.9316440E-01 (  -2.535eV)
    -0.9420392E-01 (  -2.563eV)
    -0.1459630E+00 (  -3.972eV)
    -0.8862046E+00 ( -24.115eV)    -0.7755087E+00 ( -21.103eV)
    -0.8871007E+00 ( -24.139eV)    -0.7771970E+00 ( -21.149eV)
    -0.8945026E+00 ( -24.341eV)    -0.7932591E+00 ( -21.586eV)
    -0.1674140E+01 ( -45.556eV)    -0.1536701E+01 ( -41.816eV)

 Total PSPW energy     :  -0.1047936578E+03


=== Spin Contamination ===

 <Sexact^2> =    24.750000000000000     
 <S^2>      =    24.755186923726690     



== Center of Charge ==

spin up     (    0.0000,    0.0003,   -0.0002 )
spin down   (    0.0000,   -0.0000,    0.0000 )
     total  (    0.0000,    0.0002,   -0.0001 )
ionic       (    0.0000,    0.0000,    0.0000 )


== Molecular Dipole wrt Center of Mass ==

mu   =  (   -0.0003,   -0.0034,    0.0024 ) au
|mu| =     0.0042 au,       0.0107 Debye

 output psi filename:./perm/pspw-pbe-Eu1.movecs

 Writing Crystallographic Information File:./perm/Eu1.cif
   - cell not shifted (nwpw:cif_shift_cell .false.)


== Timing ==

cputime in seconds
  prologue    :   0.108594E+02
  main loop   :   0.191117E+04
  epilogue    :   0.726375E+00
  total       :   0.192276E+04
  cputime/step:   0.121964E+01       (    1567 evalulations,     601 linesearches)


Time spent doing                        total          step       percent
  total time                 :   0.192276E+04  0.122704E+01       100.0 %
  i/o time                   :   0.105616E+02  0.673998E-02         0.5 %
  FFTs                       :   0.497857E+03  0.317713E+00        25.9 %
  dot products               :   0.245083E+02  0.156403E-01         1.3 %
  geodesic                   :   0.725815E+02  0.463188E-01         3.8 %
  ffm_dgemm                  :   0.646742E+01  0.412726E-02         0.3 %
  fmf_dgemm                  :   0.622632E+02  0.397340E-01         3.2 %
  mmm_dgemm                  :   0.217404E+00  0.138739E-03         0.0 %
  m_diagonalize              :   0.333017E-01  0.212519E-04         0.0 %
  exchange correlation       :   0.846328E+03  0.540094E+00        44.0 %
  local pseudopotentials     :   0.347729E-02  0.221907E-05         0.0 %
  non-local pseudopotentials :   0.415381E+02  0.265080E-01         2.2 %
  hartree potentials         :   0.228863E+01  0.146052E-02         0.1 %
  ion-ion interaction        :   0.266130E+00  0.169834E-03         0.0 %
  structure factors          :   0.906601E+00  0.578559E-03         0.0 %
  phase factors              :   0.119450E-04  0.762285E-08         0.0 %
  masking and packing        :   0.145138E+03  0.926218E-01         7.5 %
  queue fft                  :   0.698173E+03  0.445547E+00        36.3 %
  queue fft (serial)         :   0.237551E+03  0.151596E+00        12.4 %
  queue fft (message passing):   0.434175E+03  0.277074E+00        22.6 %
  non-local psp FFM          :   0.165776E+02  0.105792E-01         0.9 %
  non-local psp FMF          :   0.157222E+02  0.100333E-01         0.8 %
  non-local psp FFM A        :   0.879744E+01  0.561419E-02         0.5 %
  non-local psp FFM B        :   0.656866E+01  0.419187E-02         0.3 %

     >>>  JOB COMPLETED     AT Tue Apr 25 15:16:47 2023  <<<
          ****************************************************
          *                                                  *
          *               NWPW PSPW Calculation              *
          *                                                  *
          * [ (Grassmann/Stiefel manifold implementation)  ] *
          *                                                  *
          *      [ NorthWest Chemistry implementation ]      *
          *                                                  *
          *            version #5.10   06/12/02              *
          *                                                  *
          *    This code was developed by Eric J. Bylaska,   *
          *    and was based upon algorithms and code        *
          *    developed by the group of Prof. John H. Weare *
          *                                                  *
          ****************************************************
     >>>  JOB STARTED       AT Tue Apr 25 15:16:47 2023  <<<
          ================ input data ========================
 pseudopotential is not correctly formatted:Eu.vpp                                            

 Generated formatted_filename: ./perm/Eu.vpp
 - filtering pseudopotential -
 Error reading psi - bad grid
 nfft :                  140                  140                  140
 ngrid:                  150                  150                  150
 Error reading psi - bad grid
 nfft :                  140                  140                  140
 ngrid:                  150                  150                  150
 Error reading psi - bad grid

 Grid is being converted:
 ------------------------

 To turn off automatic grid conversion:

 set nwpw:psi_nogrid .false.

 old_filename: pspw-pbe-Eu1.movecs                               
 new_filename: pspw-pbe-Eu1.movecs                               
 converting  : 140x140x140 --> 150x150x150
converting .... psi:    1 spin: 1
converting .... psi:    2 spin: 1
converting .... psi:    3 spin: 1
converting .... psi:    4 spin: 1
converting .... psi:    5 spin: 1
converting .... psi:    6 spin: 1
converting .... psi:    7 spin: 1
converting .... psi:    8 spin: 1
converting .... psi:    9 spin: 1
converting .... psi:   10 spin: 1
converting .... psi:   11 spin: 1
converting .... psi:   12 spin: 1
converting .... psi:   13 spin: 1
converting .... psi:    1 spin: 2
converting .... psi:    2 spin: 2
converting .... psi:    3 spin: 2
converting .... psi:    4 spin: 2

 input psi filename:./perm/pspw-pbe-Eu1.movecs

 number of processors used:         8
 processor grid           :   8 x   1
 parallel mapping         : 2d-hcurve
 parallel mapping         :  balanced
 number of threads        :         1
 parallel io              :       off

 options:
      boundary conditions  = periodic    (version3)
      electron spin        = unrestricted
      exchange-correlation = PBE96 (White and Bird) parameterization

 elements involved in the cluster:
      1: Eu  valence charge: 17.0000  lmax=  3
             comment    : Parameterized Eu TM psp (4f5s5p5d6s6p projectors, 4/6/2022 by EJB)
             pseudpotential type            :   0
             highest angular component      :   3
             local potential used           :   0
             number of non-local projections:  25
             semicore corrections included  :  0.900 (radius) 10.478 (charge)
             cutoff =   1.618   1.828   3.813   1.403


 total charge:   0.000

 atomic composition:
     Eu  :    1

 number of electrons: spin up=    13 (  13 per task)  down=     4 (   4 per task) (Fourier space)
 number of orbitals : spin up=    13 (  13 per task)  down=     4 (   4 per task) (Fourier space)

 supercell:
      cell_name:  cell_default                                      
      lattice:    a1=<  26.000   0.000   0.000 >
                  a2=<   0.000  26.000   0.000 >
                  a3=<   0.000   0.000  26.000 >
      reciprocal: b1=<   0.242   0.000   0.000 >
                  b2=<   0.000   0.242   0.000 >
                  b3=<   0.000   0.000   0.242 >
      lattice:    a=      26.000 b=     26.000 c=      26.000
                  alpha=  90.000 beta=  90.000 gamma=  90.000
                  omega=     17576.0

      density cutoff=160.000  fft=150x150x150(   849355 waves   106169 per task)
      wavefnc cutoff= 80.000  fft=150x150x150(   300163 waves    37520 per task)
      Ewald summation: cut radius=    8.28  and  1
                       Madelung Wigner-Seitz=    1.76011888 (alpha=    2.83729748 rs=16.12911276)

 technical parameters:
      time step=      1.00     fictitious mass=  400000.0
      tolerance=0.100E-06 (energy)   0.100E-06 (density)
      maximum iterations =      1000 (   10 inner    100 outer )





== Energy Calculation ==


          ============ Grassmann lmbfgs iteration ============
     >>>  ITERATION STARTED AT Tue Apr 25 15:17:01 2023  <<<
    iter.           Energy         DeltaE       DeltaRho 
    ------------------------------------------------------
      10   -0.1055327236E+03   -0.51173E-03    0.25155E-01
      20   -0.1055346731E+03   -0.77905E-04    0.70312E-04
      30   -0.1055349952E+03   -0.14287E-04    0.42608E-05
      40   -0.1055350718E+03   -0.43655E-05    0.78411E-06
      50   -0.1055350982E+03   -0.17195E-05    0.31195E-06
      60   -0.1055351100E+03   -0.89674E-06    0.23467E-06
      70   -0.1055351163E+03   -0.43638E-06    0.16017E-06
      80   -0.1055351190E+03   -0.16665E-06    0.50952E-07
      90   -0.1055351198E+03   -0.97506E-07    0.94313E-08
  *** tolerance ok. iteration terminated
     >>>  ITERATION ENDED   AT Tue Apr 25 15:22:24 2023  <<<


==  Summary Of Results  ==

 number of electrons: spin up=   13.00000  down=    4.00000 (real space)

 total     energy    :  -0.1055351198E+03 (   -0.10554E+03/ion)
 total orbital energy:  -0.8862840842E+01 (   -0.52134E+00/electron)
 hartree   energy    :   0.7206300736E+02 (    0.42390E+01/electron)
 exc-corr  energy    :  -0.2568722856E+02 (   -0.15110E+01/electron)
 ion-ion   energy    :  -0.1576882638E+02 (   -0.15769E+02/ion)

 kinetic (planewave) :   0.9664800374E+02 (    0.56852E+01/electron)
 V_local (planewave) :  -0.1537970170E+03 (   -0.90469E+01/electron)
 V_nl    (planewave) :  -0.7899305903E+02 (   -0.46467E+01/electron)
 V_Coul  (planewave) :   0.1441260147E+03 (    0.84780E+01/electron)
 V_xc.   (planewave) :  -0.1684678332E+02 (   -0.99099E+00/electron)
 Virial Coefficient  :  -0.1091702265E+01

 orbital energies:
    -0.5040246E-01 (  -1.372eV)
    -0.1064990E+00 (  -2.898eV)
    -0.1082641E+00 (  -2.946eV)
    -0.1090369E+00 (  -2.967eV)
    -0.1105886E+00 (  -3.009eV)
    -0.1142404E+00 (  -3.109eV)
    -0.1147763E+00 (  -3.123eV)
    -0.1150396E+00 (  -3.130eV)
    -0.1254253E+00 (  -3.413eV)
    -0.8477718E+00 ( -23.069eV)    -0.7403238E+00 ( -20.145eV)
    -0.8485149E+00 ( -23.089eV)    -0.7416849E+00 ( -20.182eV)
    -0.8566978E+00 ( -23.312eV)    -0.7590682E+00 ( -20.655eV)
    -0.1624782E+01 ( -44.213eV)    -0.1489725E+01 ( -40.538eV)

 Total PSPW energy     :  -0.1055351198E+03


=== Spin Contamination ===

 <Sexact^2> =    24.750000000000000     
 <S^2>      =    24.755300195978712     



== Center of Charge ==

spin up     (    0.0000,    0.0001,   -0.0001 )
spin down   (    0.0000,   -0.0000,    0.0000 )
     total  (    0.0000,    0.0001,   -0.0001 )
ionic       (    0.0000,    0.0000,    0.0000 )


== Molecular Dipole wrt Center of Mass ==

mu   =  (   -0.0002,   -0.0018,    0.0018 ) au
|mu| =     0.0025 au,       0.0064 Debye

 output psi filename:./perm/pspw-pbe-Eu1.movecs

 Writing Crystallographic Information File:./perm/Eu1.cif
   - cell not shifted (nwpw:cif_shift_cell .false.)


== Timing ==

cputime in seconds
  prologue    :   0.143168E+02
  main loop   :   0.323110E+03
  epilogue    :   0.919100E+00
  total       :   0.338346E+03
  cputime/step:   0.162367E+01       (     199 evalulations,      87 linesearches)


Time spent doing                        total          step       percent
  total time                 :   0.338351E+03  0.170026E+01       100.0 %
  i/o time                   :   0.137773E+02  0.692329E-01         4.1 %
  FFTs                       :   0.769062E+02  0.386463E+00        22.7 %
  dot products               :   0.453629E+01  0.227954E-01         1.3 %
  geodesic                   :   0.170873E+02  0.858657E-01         5.1 %
  ffm_dgemm                  :   0.993614E+00  0.499303E-02         0.3 %
  fmf_dgemm                  :   0.148593E+02  0.746698E-01         4.4 %
  mmm_dgemm                  :   0.143112E-01  0.719156E-04         0.0 %
  m_diagonalize              :   0.468871E-02  0.235613E-04         0.0 %
  exchange correlation       :   0.132435E+03  0.665500E+00        39.1 %
  local pseudopotentials     :   0.372960E-02  0.187417E-04         0.0 %
  non-local pseudopotentials :   0.807027E+01  0.405541E-01         2.4 %
  hartree potentials         :   0.515753E+00  0.259172E-02         0.2 %
  ion-ion interaction        :   0.443676E-01  0.222953E-03         0.0 %
  structure factors          :   0.173570E+00  0.872211E-03         0.1 %
  phase factors              :   0.110960E-04  0.557588E-07         0.0 %
  masking and packing        :   0.246320E+02  0.123779E+00         7.3 %
  queue fft                  :   0.117991E+03  0.592920E+00        34.9 %
  queue fft (serial)         :   0.364468E+02  0.183150E+00        10.8 %
  queue fft (message passing):   0.765192E+02  0.384519E+00        22.6 %
  non-local psp FFM          :   0.322650E+01  0.162136E-01         1.0 %
  non-local psp FMF          :   0.302227E+01  0.151873E-01         0.9 %
  non-local psp FFM A        :   0.187087E+01  0.940135E-02         0.6 %
  non-local psp FFM B        :   0.119254E+01  0.599268E-02         0.4 %

     >>>  JOB COMPLETED     AT Tue Apr 25 15:22:25 2023  <<<

 Task  times  cpu:     2622.4s     wall:     2622.4s


                                NWChem Input Module
                                -------------------


 Summary of allocated global arrays
-----------------------------------
  No active global arrays


MA_summarize_allocated_blocks: starting scan ...
MA_summarize_allocated_blocks: scan completed: 0 heap blocks, 0 stack blocks
MA usage statistics:

	allocation statistics:
					      heap	     stack
					      ----	     -----
	current number of blocks	         0	         0
	maximum number of blocks	       277	        21
	current total bytes		         0	         0
	maximum total bytes		 384631728	  95669512
	maximum total K-bytes		    384632	     95670
	maximum total M-bytes		       385	        96


                                     CITATION
                                     --------
                Please cite the following reference when publishing
                           results obtained with NWChem:

          E. Apra, E. J. Bylaska, W. A. de Jong, N. Govind, K. Kowalski,
       T. P. Straatsma, M. Valiev, H. J. J. van Dam, Y. Alexeev, J. Anchell,
       V. Anisimov, F. W. Aquino, R. Atta-Fynn, J. Autschbach, N. P. Bauman,
     J. C. Becca, D. E. Bernholdt, K. Bhaskaran-Nair, S. Bogatko, P. Borowski,
         J. Boschen, J. Brabec, A. Bruner, E. Cauet, Y. Chen, G. N. Chuev,
      C. J. Cramer, J. Daily, M. J. O. Deegan, T. H. Dunning Jr., M. Dupuis,
   K. G. Dyall, G. I. Fann, S. A. Fischer, A. Fonari, H. Fruchtl, L. Gagliardi,
      J. Garza, N. Gawande, S. Ghosh, K. Glaesemann, A. W. Gotz, J. Hammond,
       V. Helms, E. D. Hermes, K. Hirao, S. Hirata, M. Jacquelin, L. Jensen,
   B. G. Johnson, H. Jonsson, R. A. Kendall, M. Klemm, R. Kobayashi, V. Konkov,
      S. Krishnamoorthy, M. Krishnan, Z. Lin, R. D. Lins, R. J. Littlefield,
      A. J. Logsdail, K. Lopata, W. Ma, A. V. Marenich, J. Martin del Campo,
   D. Mejia-Rodriguez, J. E. Moore, J. M. Mullin, T. Nakajima, D. R. Nascimento,
    J. A. Nichols, P. J. Nichols, J. Nieplocha, A. Otero-de-la-Roza, B. Palmer,
    A. Panyala, T. Pirojsirikul, B. Peng, R. Peverati, J. Pittner, L. Pollack,
   R. M. Richard, P. Sadayappan, G. C. Schatz, W. A. Shelton, D. W. Silverstein,
   D. M. A. Smith, T. A. Soares, D. Song, M. Swart, H. L. Taylor, G. S. Thomas,
            V. Tipparaju, D. G. Truhlar, K. Tsemekhman, T. Van Voorhis,
      A. Vazquez-Mayagoitia, P. Verma, O. Villa, A. Vishnu, K. D. Vogiatzis,
        D. Wang, J. H. Weare, M. J. Williamson, T. L. Windus, K. Wolinski,
        A. T. Wong, Q. Wu, C. Yang, Q. Yu, M. Zacharias, Z. Zhang, Y. Zhao,
                                and R. J. Harrison
                        "NWChem: Past, present, and future
                         J. Chem. Phys. 152, 184102 (2020)
                               doi:10.1063/5.0004997

                                      AUTHORS
                                      -------
  E. Apra, E. J. Bylaska, N. Govind, K. Kowalski, M. Valiev, D. Mejia-Rodriguez,
       A. Kunitsa, N. P. Bauman, A. Panyala, W. A. de Jong, T. P. Straatsma,
   H. J. J. van Dam, D. Wang, T. L. Windus, J. Hammond, J. Autschbach, A. Woods,
    K. Bhaskaran-Nair, J. Brabec, K. Lopata, S. A. Fischer, S. Krishnamoorthy,
     M. Jacquelin, W. Ma, M. Klemm, O. Villa, Y. Chen, V. Anisimov, F. Aquino,
     S. Hirata, M. T. Hackler, E. Hermes, L. Jensen, J. E. Moore, J. C. Becca,
      V. Konjkov, T. Risthaus, M. Malagoli, A. Marenich, A. Otero-de-la-Roza,
        J. Mullin, P. Nichols, R. Peverati, J. Pittner, Y. Zhao, P.-D. Fan,
        A. Fonari, M. J. Williamson, R. J. Harrison, J. R. Rehr, M. Dupuis,
     D. Silverstein, D. M. A. Smith, J. Nieplocha, V. Tipparaju, M. Krishnan,
     B. E. Van Kuiken, A. Vazquez-Mayagoitia, M. Swart, Q. Wu, T. Van Voorhis,
     A. A. Auer, M. Nooijen, L. D. Crosby, E. Brown, G. Cisneros, G. I. Fann,
   H. Fruchtl, J. Garza, K. Hirao, R. A. Kendall, J. A. Nichols, K. Tsemekhman,
    K. Wolinski, J. Anchell, D. E. Bernholdt, P. Borowski, T. Clark, D. Clerc,
   H. Dachsel, M. J. O. Deegan, K. Dyall, D. Elwood, E. Glendening, M. Gutowski,
   A. C. Hess, J. Jaffe, B. G. Johnson, J. Ju, R. Kobayashi, R. Kutteh, Z. Lin,
   R. Littlefield, X. Long, B. Meng, T. Nakajima, S. Niu, L. Pollack, M. Rosing,
   K. Glaesemann, G. Sandrone, M. Stave, H. Taylor, G. Thomas, J. H. van Lenthe,
                               A. T. Wong, Z. Zhang.

 Total times  cpu:     2622.4s     wall:     2622.4s
