 argument  1 = Lu1.nw
  NWChem w/ OpenMP: maximum threads =    1



============================== echo of input deck ==============================
title "swnc: e theory=pspw xc=pbe formula=H130O65lu1 charge=0 mult=3"
#machinejob:expert

permanent_dir ./perm
scratch_dir   ./perm

echo

start pspw-pbe-Lu1

memory 2300 mb

charge 0

geometry
Lu 0.0 0.0 0.0
end


nwpw
  simulation_cell
     SC 26.0
     #boundary_conditions aperiodic
  end

  ### pseudopotential block begin ###
  ### pseudopotential block end   ###
  2d-hcurve
  time_step 1.0
  cutoff 80.0
  lmbfgs

  mult 10
  xc pbe96

end
set nwpw:kbpp_ray    .true.
set nwpw:kbpp_filter .true.
#set nwpw:gram-schmidt .true.
set nwpw:cif_filename Lu1

#task pspw steepest_descent
task pspw energy ignore

================================================================================


                                         
                                         


             Northwest Computational Chemistry Package (NWChem) 7.2.0
             --------------------------------------------------------


                    Environmental Molecular Sciences Laboratory
                       Pacific Northwest National Laboratory
                                Richland, WA 99352

                              Copyright (c) 1994-2022
                       Pacific Northwest National Laboratory
                            Battelle Memorial Institute

             NWChem is an open-source computational chemistry package
                        distributed under the terms of the
                      Educational Community License (ECL) 2.0
             A copy of the license is included with this distribution
                              in the LICENSE.TXT file

                                  ACKNOWLEDGMENT
                                  --------------

            This software and its documentation were developed at the
            EMSL at Pacific Northwest National Laboratory, a multiprogram
            national laboratory, operated for the U.S. Department of Energy
            by Battelle under Contract Number DE-AC05-76RL01830. Support
            for this work was provided by the Department of Energy Office
            of Biological and Environmental Research, Office of Basic
            Energy Sciences, and the Office of Advanced Scientific Computing.


           Job information
           ---------------

    hostname        = WE45090U
    program         = nwchem
    date            = Tue Apr 25 17:01:58 2023

    compiled        = Tue_Apr_25_14:35:41_2023
    source          = /home/bylaska/nwchem-releases/nwchem
    nwchem branch   = 7.2.0
    nwchem revision = v7.2.0-beta1-403-gd681ac3cc4
    ga revision     = 5.8.0
    use scalapack   = F
    input           = Lu1.nw
    prefix          = pspw-pbe-Lu1.
    data base       = ./perm/pspw-pbe-Lu1.db
    status          = startup
    nproc           =        8
    time left       =     -1s



           Memory information
           ------------------

    heap     =   75366394 doubles =    575.0 Mbytes
    stack    =   75366399 doubles =    575.0 Mbytes
    global   =  150732800 doubles =   1150.0 Mbytes (distinct from heap & stack)
    total    =  301465593 doubles =   2300.0 Mbytes
    verify   = yes
    hardfail = no 


           Directory information
           ---------------------

  0 permanent = ./perm
  0 scratch   = ./perm




                                NWChem Input Module
                                -------------------


           swnc: e theory=pspw xc=pbe formula=H130O65lu1 charge=0 mult=3
           -------------------------------------------------------------

 Scaling coordinates for geometry "geometry" by  1.889725989
 (inverse scale =  0.529177249)



                             Geometry "geometry" -> ""
                             -------------------------

 Output coordinates in angstroms (scale by  1.889725989 to convert to a.u.)

  No.       Tag          Charge          X              Y              Z
 ---- ---------------- ---------- -------------- -------------- --------------
    1 Lu                  71.0000     0.00000000     0.00000000     0.00000000

      Atomic Mass 
      ----------- 

      Lu               174.940900


 Effective nuclear repulsion energy (a.u.)       0.0000000000

            Nuclear Dipole moment (a.u.) 
            ----------------------------
        X                 Y               Z
 ---------------- ---------------- ----------------
     0.0000000000     0.0000000000     0.0000000000


            XYZ format geometry
            -------------------
     1
 geometry
 Lu                    0.00000000     0.00000000     0.00000000

          ****************************************************
          *                                                  *
          *               NWPW PSPW Calculation              *
          *                                                  *
          * [ (Grassmann/Stiefel manifold implementation)  ] *
          *                                                  *
          *      [ NorthWest Chemistry implementation ]      *
          *                                                  *
          *            version #5.10   06/12/02              *
          *                                                  *
          *    This code was developed by Eric J. Bylaska,   *
          *    and was based upon algorithms and code        *
          *    developed by the group of Prof. John H. Weare *
          *                                                  *
          ****************************************************
     >>>  JOB STARTED       AT Tue Apr 25 17:01:58 2023  <<<
          ================ input data ========================
  library name resolved from: compiled reference
  NWCHEM_NWPW_LIBRARY set to: </home/bylaska/nwchem-releases/nwchem/src/nwpw/libraryps/>
 Generating 1d pseudopotential for Lu  

 Generated formatted_filename: ./perm/Lu.vpp
 - filtering pseudopotential -
 random planewave guess, initial psi:pspw-pbe-Lu1.movecs                               
 -   spin, nalpha, nbeta:                    2                   17                    8

 input psi filename:./perm/pspw-pbe-Lu1.movecs

 Warning - K.S. orbitals are not orthonormal. Applying Gram-Schmidt orthonormalization.
         - exact norm=0.250000E+02 norm=0.159951E+02 corrected norm=0.250000E+02 (error=0.900486E+01)


 number of processors used:         8
 processor grid           :   8 x   1
 parallel mapping         : 2d-hcurve
 parallel mapping         :  balanced
 number of threads        :         1
 parallel io              :       off

 options:
      boundary conditions  = periodic    (version3)
      electron spin        = unrestricted
      exchange-correlation = PBE96 (White and Bird) parameterization

 elements involved in the cluster:
      1: Lu  valence charge: 25.0000  lmax=  3
             comment    : Parameterized Lu TM psp (4f5s5p5d6s6p projectors, 4/5/2022 by EJB)
             pseudpotential type            :   0
             highest angular component      :   3
             local potential used           :   0
             number of non-local projections:  25
             semicore corrections included  :  0.800 (radius)  8.715 (charge)
             cutoff =   1.618   1.828   1.813   1.403


 total charge:   0.000

 atomic composition:
     Lu  :    1

 number of electrons: spin up=    17 (  17 per task)  down=     8 (   8 per task) (Fourier space)
 number of orbitals : spin up=    17 (  17 per task)  down=     8 (   8 per task) (Fourier space)

 supercell:
      cell_name:  cell_default                                      
      lattice:    a1=<  26.000   0.000   0.000 >
                  a2=<   0.000  26.000   0.000 >
                  a3=<   0.000   0.000  26.000 >
      reciprocal: b1=<   0.242   0.000   0.000 >
                  b2=<   0.000   0.242   0.000 >
                  b3=<   0.000   0.000   0.242 >
      lattice:    a=      26.000 b=     26.000 c=      26.000
                  alpha=  90.000 beta=  90.000 gamma=  90.000
                  omega=     17576.0

      density cutoff= 40.000  fft= 80x 80x 80(   106048 waves    13256 per task)
      wavefnc cutoff= 20.000  fft= 80x 80x 80(    37447 waves     4680 per task)
      Ewald summation: cut radius=    8.28  and  1
                       Madelung Wigner-Seitz=    1.76011888 (alpha=    2.83729748 rs=16.12911276)

 technical parameters:
      time step=      1.00     fictitious mass=  400000.0
      tolerance=0.100E-06 (energy)   0.100E-06 (density)
      maximum iterations =      1000 (   10 inner    100 outer )





== Energy Calculation ==


          ============ Grassmann lmbfgs iteration ============
     >>>  ITERATION STARTED AT Tue Apr 25 17:02:00 2023  <<<
    iter.           Energy         DeltaE       DeltaRho 
    ------------------------------------------------------
     -  15 steepest descent iterations performed
      10   -0.2355129295E+03   -0.18871E+01    0.21371E+02
     -  10 steepest descent iterations performed
      20   -0.2389613761E+03   -0.59239E-01    0.69583E-01
     -  10 steepest descent iterations performed
      30   -0.2391773670E+03   -0.14468E-01    0.81956E-02
     -  10 steepest descent iterations performed
      40   -0.2392274601E+03   -0.16604E-02    0.13351E-02
      50   -0.2392414993E+03   -0.70036E-03    0.19718E-02
      60   -0.2392478139E+03   -0.35652E-03    0.38052E-02
      70   -0.2392511308E+03   -0.39329E-03    0.19494E-02
     -  10 steepest descent iterations performed
      80   -0.2392528897E+03   -0.15929E-03    0.15520E-03
      90   -0.2392551419E+03   -0.24197E-03    0.12898E-02
     -  10 steepest descent iterations performed
     100   -0.2392568205E+03   -0.17095E-03    0.25595E-03
     110   -0.2392585187E+03   -0.17428E-03    0.10903E-02
     -  10 steepest descent iterations performed
     120   -0.2392598503E+03   -0.12196E-03    0.14598E-03
     130   -0.2392610620E+03   -0.98293E-04    0.62157E-03
     140   -0.2392635460E+03   -0.13313E-03    0.40656E-02
     -  10 steepest descent iterations performed
     150   -0.2392644595E+03   -0.11304E-03    0.18958E-03
     160   -0.2392648028E+03   -0.32132E-04    0.61910E-04
     170   -0.2392653659E+03   -0.58909E-04    0.17616E-03
     -  10 steepest descent iterations performed
     180   -0.2392657246E+03   -0.26340E-04    0.20756E-04
     190   -0.2392659549E+03   -0.24123E-04    0.66038E-04
     200   -0.2392662957E+03   -0.21761E-04    0.13827E-03
     210   -0.2392667835E+03   -0.39721E-04    0.16840E-03
     -  10 steepest descent iterations performed
     220   -0.2392669638E+03   -0.15062E-04    0.27541E-04
     230   -0.2392670688E+03   -0.11934E-04    0.49650E-04
     240   -0.2392671291E+03   -0.49485E-05    0.17799E-04
     250   -0.2392671951E+03   -0.10223E-04    0.13033E-04
     -  10 steepest descent iterations performed
     260   -0.2392672352E+03   -0.27215E-05    0.17125E-05
     270   -0.2392672625E+03   -0.32901E-05    0.87688E-05
     -  10 steepest descent iterations performed
     280   -0.2392672784E+03   -0.13233E-05    0.38318E-06
     290   -0.2392672983E+03   -0.21285E-05    0.31604E-05
     -  10 steepest descent iterations performed
     300   -0.2392673156E+03   -0.12957E-05    0.52987E-06
     310   -0.2392673278E+03   -0.13673E-05    0.14363E-05
     -  10 steepest descent iterations performed
     320   -0.2392673391E+03   -0.99439E-06    0.31956E-06
     330   -0.2392673534E+03   -0.14696E-05    0.26397E-05
     -  10 steepest descent iterations performed
     340   -0.2392673667E+03   -0.10264E-05    0.44737E-06
     350   -0.2392673763E+03   -0.10737E-05    0.14010E-05
     -  10 steepest descent iterations performed
     360   -0.2392673855E+03   -0.81710E-06    0.29150E-06
     370   -0.2392673974E+03   -0.12343E-05    0.28185E-05
     -  10 steepest descent iterations performed
     380   -0.2392674088E+03   -0.88723E-06    0.40145E-06
     390   -0.2392674172E+03   -0.94706E-06    0.14755E-05
     -  10 steepest descent iterations performed
     400   -0.2392674254E+03   -0.73097E-06    0.28465E-06
     410   -0.2392674361E+03   -0.11238E-05    0.30677E-05
     -  10 steepest descent iterations performed
     420   -0.2392674466E+03   -0.82306E-06    0.38418E-06
     430   -0.2392674544E+03   -0.88746E-06    0.15715E-05
     -  10 steepest descent iterations performed
     440   -0.2392674622E+03   -0.69353E-06    0.28782E-06
     450   -0.2392674723E+03   -0.10728E-05    0.33057E-05
     -  10 steepest descent iterations performed
     460   -0.2392674825E+03   -0.79847E-06    0.38027E-06
     470   -0.2392674900E+03   -0.86143E-06    0.16583E-05
     -  10 steepest descent iterations performed
     480   -0.2392674976E+03   -0.68188E-06    0.29475E-06
     490   -0.2392675076E+03   -0.10524E-05    0.35039E-05
     -  10 steepest descent iterations performed
     500   -0.2392675176E+03   -0.79503E-06    0.38180E-06
     510   -0.2392675251E+03   -0.85312E-06    0.17264E-05
     -  10 steepest descent iterations performed
     520   -0.2392675326E+03   -0.68416E-06    0.30251E-06
     530   -0.2392675426E+03   -0.10486E-05    0.36557E-05
     -  10 steepest descent iterations performed
     540   -0.2392675527E+03   -0.80328E-06    0.38517E-06
     550   -0.2392675602E+03   -0.85458E-06    0.17751E-05
     -  10 steepest descent iterations performed
     560   -0.2392675678E+03   -0.69433E-06    0.31000E-06
     570   -0.2392675779E+03   -0.10543E-05    0.37677E-05
     -  10 steepest descent iterations performed
     580   -0.2392675880E+03   -0.81835E-06    0.38887E-06
     590   -0.2392675957E+03   -0.86172E-06    0.18074E-05
     -  10 steepest descent iterations performed
     600   -0.2392676034E+03   -0.70921E-06    0.31698E-06
     610   -0.2392676136E+03   -0.10657E-05    0.38491E-05
     -  10 steepest descent iterations performed
     620   -0.2392676239E+03   -0.83761E-06    0.39241E-06
     630   -0.2392676317E+03   -0.87229E-06    0.18275E-05
     -  10 steepest descent iterations performed
     640   -0.2392676396E+03   -0.72701E-06    0.32354E-06
     650   -0.2392676500E+03   -0.10806E-05    0.39091E-05
     -  10 steepest descent iterations performed
     660   -0.2392676605E+03   -0.85942E-06    0.39570E-06
     670   -0.2392676684E+03   -0.88480E-06    0.18394E-05
     -  10 steepest descent iterations performed
     680   -0.2392676764E+03   -0.74651E-06    0.32985E-06
     690   -0.2392676871E+03   -0.10971E-05    0.39553E-05
     -  10 steepest descent iterations performed
     700   -0.2392676978E+03   -0.88251E-06    0.39877E-06
     710   -0.2392677059E+03   -0.89799E-06    0.18464E-05
     -  10 steepest descent iterations performed
     720   -0.2392677141E+03   -0.76662E-06    0.33603E-06
     730   -0.2392677249E+03   -0.11138E-05    0.39925E-05
     -  10 steepest descent iterations performed
     740   -0.2392677359E+03   -0.90560E-06    0.40163E-06
     750   -0.2392677441E+03   -0.91060E-06    0.18504E-05
     -  10 steepest descent iterations performed
     760   -0.2392677524E+03   -0.78624E-06    0.34208E-06
     770   -0.2392677635E+03   -0.11290E-05    0.40235E-05
     -  10 steepest descent iterations performed
     780   -0.2392677747E+03   -0.92734E-06    0.40415E-06
     790   -0.2392677830E+03   -0.92135E-06    0.18525E-05
     800   -0.2392680462E+03   -0.15209E-04    0.19884E-02
     -  10 steepest descent iterations performed
     810   -0.2392681411E+03   -0.83112E-05    0.34167E-05
     820   -0.2392681590E+03   -0.16772E-05    0.17470E-05
     830   -0.2392681769E+03   -0.13094E-05    0.49799E-05
     840   -0.2392681939E+03   -0.20467E-05    0.94959E-05
     -  10 steepest descent iterations performed
     850   -0.2392682046E+03   -0.14889E-05    0.57599E-06
     860   -0.2392682170E+03   -0.13422E-05    0.41910E-05
     870   -0.2392682310E+03   -0.14524E-05    0.96307E-05
     -  10 steepest descent iterations performed
     880   -0.2392682412E+03   -0.11395E-05    0.45397E-06
     890   -0.2392682543E+03   -0.12842E-05    0.34871E-05
     -  10 steepest descent iterations performed
     900   -0.2392682598E+03   -0.52849E-06    0.20512E-06
     910   -0.2392682715E+03   -0.11769E-05    0.58134E-05
     -  10 steepest descent iterations performed
     920   -0.2392682801E+03   -0.55235E-06    0.24348E-06
     930   -0.2392682868E+03   -0.78124E-06    0.16793E-05
     -  10 steepest descent iterations performed
     940   -0.2392682922E+03   -0.43365E-06    0.19021E-06
     950   -0.2392683002E+03   -0.83068E-06    0.32241E-05
     -  10 steepest descent iterations performed
     960   -0.2392683077E+03   -0.52392E-06    0.24552E-06
     970   -0.2392683132E+03   -0.62846E-06    0.13076E-05
     -  10 steepest descent iterations performed
     980   -0.2392683183E+03   -0.44878E-06    0.21689E-06
     990   -0.2392683257E+03   -0.71458E-06    0.28699E-05
     -  10 steepest descent iterations performed
    1000   -0.2392683327E+03   -0.52851E-06    0.24297E-06
 *** arrived at the Maximum iteration.  terminated
     >>>  ITERATION ENDED   AT Tue Apr 25 17:09:05 2023  <<<


==  Summary Of Results  ==

 number of electrons: spin up=   17.00000  down=    8.00000 (real space)

 total     energy    :  -0.2392683327E+03 (   -0.23927E+03/ion)
 total orbital energy:  -0.4977916206E+02 (   -0.19912E+01/electron)
 hartree   energy    :   0.1492542941E+03 (    0.59702E+01/electron)
 exc-corr  energy    :  -0.3073152030E+02 (   -0.12293E+01/electron)
 ion-ion   energy    :  -0.3410213317E+02 (   -0.34102E+02/ion)

 kinetic (planewave) :   0.6117168476E+02 (    0.24469E+01/electron)
 V_local (planewave) :  -0.3852975149E+03 (   -0.15412E+02/electron)
 V_nl    (planewave) :   0.4368567707E+00 (    0.17474E-01/electron)
 V_Coul  (planewave) :   0.2985085883E+03 (    0.11940E+02/electron)
 V_xc.   (planewave) :  -0.2459877696E+02 (   -0.98395E+00/electron)
 Virial Coefficient  :  -0.1813761502E+01

 orbital energies:
    -0.1000694E+00 (  -2.723eV)
    -0.1050447E+00 (  -2.858eV)
    -0.1137367E+00 (  -3.095eV)
    -0.2516235E+00 (  -6.847eV)
    -0.5678078E+00 ( -15.451eV)
    -0.5734180E+00 ( -15.604eV)
    -0.5943161E+00 ( -16.172eV)
    -0.1436860E+01 ( -39.099eV)
    -0.1437561E+01 ( -39.118eV)
    -0.1453511E+01 ( -39.552eV)    -0.1368653E+01 ( -37.243eV)
    -0.1481269E+01 ( -40.308eV)    -0.1370204E+01 ( -37.285eV)
    -0.1498138E+01 ( -40.767eV)    -0.1385853E+01 ( -37.711eV)
    -0.1540240E+01 ( -41.912eV)    -0.1430572E+01 ( -38.928eV)
    -0.3703216E+01 (-100.770eV)    -0.3636558E+01 ( -98.957eV)
    -0.3716222E+01 (-101.124eV)    -0.3639609E+01 ( -99.040eV)
    -0.3765519E+01 (-102.466eV)    -0.3649335E+01 ( -99.304eV)
    -0.5514657E+01 (-150.063eV)    -0.5445169E+01 (-148.172eV)

 Total PSPW energy     :  -0.2392683327E+03


=== Spin Contamination ===

 <Sexact^2> =    24.750000000000000     
 <S^2>      =    24.751323505723203     



== Center of Charge ==

spin up     (   -0.0035,   -0.0045,   -0.0072 )
spin down   (   -0.0000,   -0.0001,    0.0000 )
     total  (   -0.0024,   -0.0031,   -0.0049 )
ionic       (    0.0000,    0.0000,    0.0000 )


== Molecular Dipole wrt Center of Mass ==

mu   =  (    0.0601,    0.0780,    0.1214 ) au
|mu| =     0.1563 au,       0.3974 Debye

 output psi filename:./perm/pspw-pbe-Lu1.movecs

 Writing Crystallographic Information File:./perm/Lu1.cif
   - cell not shifted (nwpw:cif_shift_cell .false.)


== Timing ==

cputime in seconds
  prologue    :   0.187138E+01
  main loop   :   0.424411E+03
  epilogue    :   0.242728E+00
  total       :   0.426525E+03
  cputime/step:   0.158599E+00       (    2676 evalulations,    1000 linesearches)


Time spent doing                        total          step       percent
  total time                 :   0.426530E+03  0.159391E+00       100.0 %
  i/o time                   :   0.187507E+01  0.700700E-03         0.4 %
  FFTs                       :   0.665526E+02  0.248702E-01        15.6 %
  dot products               :   0.118897E+02  0.444307E-02         2.8 %
  geodesic                   :   0.221497E+02  0.827716E-02         5.2 %
  ffm_dgemm                  :   0.399998E+01  0.149476E-02         0.9 %
  fmf_dgemm                  :   0.173348E+02  0.647787E-02         4.1 %
  mmm_dgemm                  :   0.138527E+00  0.517664E-04         0.0 %
  m_diagonalize              :   0.769026E-01  0.287379E-04         0.0 %
  exchange correlation       :   0.159607E+03  0.596437E-01        37.4 %
  local pseudopotentials     :   0.387865E-03  0.144942E-06         0.0 %
  non-local pseudopotentials :   0.139809E+02  0.522456E-02         3.3 %
  hartree potentials         :   0.694909E+00  0.259682E-03         0.2 %
  ion-ion interaction        :   0.706427E-01  0.263986E-04         0.0 %
  structure factors          :   0.319193E+00  0.119280E-03         0.1 %
  phase factors              :   0.474200E-05  0.177205E-08         0.0 %
  masking and packing        :   0.295164E+02  0.110300E-01         6.9 %
  queue fft                  :   0.156804E+03  0.585964E-01        36.8 %
  queue fft (serial)         :   0.518294E+02  0.193682E-01        12.2 %
  queue fft (message passing):   0.965824E+02  0.360921E-01        22.6 %
  non-local psp FFM          :   0.737179E+01  0.275478E-02         1.7 %
  non-local psp FMF          :   0.512913E+01  0.191672E-02         1.2 %
  non-local psp FFM A        :   0.266963E+01  0.997621E-03         0.6 %
  non-local psp FFM B        :   0.362446E+01  0.135443E-02         0.8 %

     >>>  JOB COMPLETED     AT Tue Apr 25 17:09:05 2023  <<<
          ****************************************************
          *                                                  *
          *               NWPW PSPW Calculation              *
          *                                                  *
          * [ (Grassmann/Stiefel manifold implementation)  ] *
          *                                                  *
          *      [ NorthWest Chemistry implementation ]      *
          *                                                  *
          *            version #5.10   06/12/02              *
          *                                                  *
          *    This code was developed by Eric J. Bylaska,   *
          *    and was based upon algorithms and code        *
          *    developed by the group of Prof. John H. Weare *
          *                                                  *
          ****************************************************
     >>>  JOB STARTED       AT Tue Apr 25 17:09:05 2023  <<<
          ================ input data ========================
 pseudopotential is not correctly formatted:Lu.vpp                                            

 Generated formatted_filename: ./perm/Lu.vpp
 - filtering pseudopotential -
 Error reading psi - bad grid
 nfft :                   80                   80                   80
 ngrid:                  108                  108                  108
 Error reading psi - bad grid
 nfft :                   80                   80                   80
 ngrid:                  108                  108                  108
 Error reading psi - bad grid

 Grid is being converted:
 ------------------------

 To turn off automatic grid conversion:

 set nwpw:psi_nogrid .false.

 old_filename: pspw-pbe-Lu1.movecs                               
 new_filename: pspw-pbe-Lu1.movecs                               
 converting  :  80x 80x 80 --> 108x108x108
converting .... psi:    1 spin: 1
converting .... psi:    2 spin: 1
converting .... psi:    3 spin: 1
converting .... psi:    4 spin: 1
converting .... psi:    5 spin: 1
converting .... psi:    6 spin: 1
converting .... psi:    7 spin: 1
converting .... psi:    8 spin: 1
converting .... psi:    9 spin: 1
converting .... psi:   10 spin: 1
converting .... psi:   11 spin: 1
converting .... psi:   12 spin: 1
converting .... psi:   13 spin: 1
converting .... psi:   14 spin: 1
converting .... psi:   15 spin: 1
converting .... psi:   16 spin: 1
converting .... psi:   17 spin: 1
converting .... psi:    1 spin: 2
converting .... psi:    2 spin: 2
converting .... psi:    3 spin: 2
converting .... psi:    4 spin: 2
converting .... psi:    5 spin: 2
converting .... psi:    6 spin: 2
converting .... psi:    7 spin: 2
converting .... psi:    8 spin: 2

 input psi filename:./perm/pspw-pbe-Lu1.movecs

 number of processors used:         8
 processor grid           :   8 x   1
 parallel mapping         : 2d-hcurve
 parallel mapping         :  balanced
 number of threads        :         1
 parallel io              :       off

 options:
      boundary conditions  = periodic    (version3)
      electron spin        = unrestricted
      exchange-correlation = PBE96 (White and Bird) parameterization

 elements involved in the cluster:
      1: Lu  valence charge: 25.0000  lmax=  3
             comment    : Parameterized Lu TM psp (4f5s5p5d6s6p projectors, 4/5/2022 by EJB)
             pseudpotential type            :   0
             highest angular component      :   3
             local potential used           :   0
             number of non-local projections:  25
             semicore corrections included  :  0.800 (radius)  8.722 (charge)
             cutoff =   1.618   1.828   1.813   1.403


 total charge:   0.000

 atomic composition:
     Lu  :    1

 number of electrons: spin up=    17 (  17 per task)  down=     8 (   8 per task) (Fourier space)
 number of orbitals : spin up=    17 (  17 per task)  down=     8 (   8 per task) (Fourier space)

 supercell:
      cell_name:  cell_default                                      
      lattice:    a1=<  26.000   0.000   0.000 >
                  a2=<   0.000  26.000   0.000 >
                  a3=<   0.000   0.000  26.000 >
      reciprocal: b1=<   0.242   0.000   0.000 >
                  b2=<   0.000   0.242   0.000 >
                  b3=<   0.000   0.000   0.242 >
      lattice:    a=      26.000 b=     26.000 c=      26.000
                  alpha=  90.000 beta=  90.000 gamma=  90.000
                  omega=     17576.0

      density cutoff= 80.000  fft=108x108x108(   300163 waves    37520 per task)
      wavefnc cutoff= 40.000  fft=108x108x108(   106048 waves    13256 per task)
      Ewald summation: cut radius=    8.28  and  1
                       Madelung Wigner-Seitz=    1.76011888 (alpha=    2.83729748 rs=16.12911276)

 technical parameters:
      time step=      1.00     fictitious mass=  400000.0
      tolerance=0.100E-06 (energy)   0.100E-06 (density)
      maximum iterations =      1000 (   10 inner    100 outer )





== Energy Calculation ==


          ============ Grassmann lmbfgs iteration ============
     >>>  ITERATION STARTED AT Tue Apr 25 17:09:09 2023  <<<
    iter.           Energy         DeltaE       DeltaRho 
    ------------------------------------------------------
      10   -0.2431531444E+03   -0.17564E+00    0.59055E+00
     -  10 steepest descent iterations performed
      20   -0.2442385041E+03   -0.42337E-01    0.92137E-01
     -  10 steepest descent iterations performed
      30   -0.2456979115E+03   -0.52920E-01    0.40224E+00
     -  10 steepest descent iterations performed
      40   -0.2462774735E+03   -0.15525E-01    0.15588E+00
     -  10 steepest descent iterations performed
      50   -0.2463782284E+03   -0.25245E-02    0.22480E-01
      60   -0.2464022469E+03   -0.70950E-03    0.35321E-02
      70   -0.2464046029E+03   -0.18841E-03    0.15481E-03
      80   -0.2464078485E+03   -0.48472E-03    0.22649E-02
     -  10 steepest descent iterations performed
      90   -0.2464100147E+03   -0.10170E-03    0.42154E-04
     100   -0.2464108086E+03   -0.92890E-04    0.13947E-03
     110   -0.2464120216E+03   -0.10991E-03    0.94068E-03
     -  10 steepest descent iterations performed
     120   -0.2464123957E+03   -0.17094E-04    0.14558E-04
     130   -0.2464124846E+03   -0.40699E-05    0.10277E-04
     140   -0.2464125260E+03   -0.42927E-05    0.12903E-04
     -  10 steepest descent iterations performed
     150   -0.2464125503E+03   -0.15358E-05    0.87664E-06
     160   -0.2464125682E+03   -0.17394E-05    0.58851E-05
     -  10 steepest descent iterations performed
     170   -0.2464125764E+03   -0.61823E-06    0.55571E-06
     180   -0.2464125822E+03   -0.30010E-06    0.15313E-05
     190   -0.2464125881E+03   -0.28069E-06    0.38745E-05
     200   -0.2464125903E+03   -0.38602E-07    0.71063E-06
     210   -0.2464125903E+03   -0.18009E-07    0.12029E-09
  *** tolerance ok. iteration terminated
     >>>  ITERATION ENDED   AT Tue Apr 25 17:14:00 2023  <<<


==  Summary Of Results  ==

 number of electrons: spin up=   17.00000  down=    8.00000 (real space)

 total     energy    :  -0.2464125903E+03 (   -0.24641E+03/ion)
 total orbital energy:  -0.2395904254E+02 (   -0.95836E+00/electron)
 hartree   energy    :   0.1830133323E+03 (    0.73205E+01/electron)
 exc-corr  energy    :  -0.3428688833E+02 (   -0.13715E+01/electron)
 ion-ion   energy    :  -0.3410213317E+02 (   -0.34102E+02/ion)

 kinetic (planewave) :   0.1206910988E+03 (    0.48276E+01/electron)
 V_local (planewave) :  -0.4288111211E+03 (   -0.17152E+02/electron)
 V_nl    (planewave) :  -0.5291687878E+02 (   -0.21167E+01/electron)
 V_Coul  (planewave) :   0.3660266646E+03 (    0.14641E+02/electron)
 V_xc.   (planewave) :  -0.2894880605E+02 (   -0.11580E+01/electron)
 Virial Coefficient  :  -0.1198515406E+01

 orbital energies:
    -0.2452867E+00 (  -6.675eV)
    -0.2574007E+00 (  -7.004eV)
    -0.2597746E+00 (  -7.069eV)
    -0.2623666E+00 (  -7.139eV)
    -0.2688463E+00 (  -7.316eV)
    -0.2735510E+00 (  -7.444eV)
    -0.2741786E+00 (  -7.461eV)
    -0.2794759E+00 (  -7.605eV)
    -0.2795629E+00 (  -7.607eV)
    -0.2796168E+00 (  -7.609eV)    -0.1764168E+00 (  -4.801eV)
    -0.3084292E+00 (  -8.393eV)    -0.1764855E+00 (  -4.802eV)
    -0.3085373E+00 (  -8.396eV)    -0.1765589E+00 (  -4.804eV)
    -0.4442556E+00 ( -12.089eV)    -0.3684656E+00 ( -10.027eV)
    -0.2129879E+01 ( -57.957eV)    -0.1911982E+01 ( -52.028eV)
    -0.2129931E+01 ( -57.959eV)    -0.1912007E+01 ( -52.029eV)
    -0.2129976E+01 ( -57.960eV)    -0.1912026E+01 ( -52.029eV)
    -0.3711683E+01 (-101.001eV)    -0.3482348E+01 ( -94.760eV)

 Total PSPW energy     :  -0.2464125903E+03


=== Spin Contamination ===

 <Sexact^2> =    24.750000000000000     
 <S^2>      =    24.791074130373225     



== Center of Charge ==

spin up     (    0.0000,    0.0000,    0.0000 )
spin down   (   -0.0000,   -0.0000,   -0.0000 )
     total  (    0.0000,   -0.0000,   -0.0000 )
ionic       (    0.0000,    0.0000,    0.0000 )


== Molecular Dipole wrt Center of Mass ==

mu   =  (   -0.0000,    0.0000,    0.0000 ) au
|mu| =     0.0001 au,       0.0001 Debye

 output psi filename:./perm/pspw-pbe-Lu1.movecs

 Writing Crystallographic Information File:./perm/Lu1.cif
   - cell not shifted (nwpw:cif_shift_cell .false.)


== Timing ==

cputime in seconds
  prologue    :   0.438627E+01
  main loop   :   0.290871E+03
  epilogue    :   0.544191E+00
  total       :   0.295801E+03
  cputime/step:   0.551937E+00       (     527 evalulations,     201 linesearches)


Time spent doing                        total          step       percent
  total time                 :   0.295813E+03  0.561315E+00       100.0 %
  i/o time                   :   0.436607E+01  0.828476E-02         1.5 %
  FFTs                       :   0.453325E+02  0.860200E-01        15.3 %
  dot products               :   0.560677E+01  0.106390E-01         1.9 %
  geodesic                   :   0.181138E+02  0.343716E-01         6.1 %
  ffm_dgemm                  :   0.185257E+01  0.351531E-02         0.6 %
  fmf_dgemm                  :   0.156375E+02  0.296726E-01         5.3 %
  mmm_dgemm                  :   0.289681E-01  0.549679E-04         0.0 %
  m_diagonalize              :   0.149024E-01  0.282779E-04         0.0 %
  exchange correlation       :   0.962476E+02  0.182633E+00        32.5 %
  local pseudopotentials     :   0.902109E-03  0.171178E-05         0.0 %
  non-local pseudopotentials :   0.863185E+01  0.163792E-01         2.9 %
  hartree potentials         :   0.405312E+00  0.769092E-03         0.1 %
  ion-ion interaction        :   0.459532E-01  0.871977E-04         0.0 %
  structure factors          :   0.170419E+00  0.323376E-03         0.1 %
  phase factors              :   0.793800E-05  0.150626E-07         0.0 %
  masking and packing        :   0.234104E+02  0.444220E-01         7.9 %
  queue fft                  :   0.124124E+03  0.235530E+00        42.0 %
  queue fft (serial)         :   0.371498E+02  0.704930E-01        12.6 %
  queue fft (message passing):   0.814586E+02  0.154570E+00        27.5 %
  non-local psp FFM          :   0.338658E+01  0.642615E-02         1.1 %
  non-local psp FMF          :   0.362042E+01  0.686986E-02         1.2 %
  non-local psp FFM A        :   0.155701E+01  0.295448E-02         0.5 %
  non-local psp FFM B        :   0.165312E+01  0.313685E-02         0.6 %

     >>>  JOB COMPLETED     AT Tue Apr 25 17:14:01 2023  <<<
          ****************************************************
          *                                                  *
          *               NWPW PSPW Calculation              *
          *                                                  *
          * [ (Grassmann/Stiefel manifold implementation)  ] *
          *                                                  *
          *      [ NorthWest Chemistry implementation ]      *
          *                                                  *
          *            version #5.10   06/12/02              *
          *                                                  *
          *    This code was developed by Eric J. Bylaska,   *
          *    and was based upon algorithms and code        *
          *    developed by the group of Prof. John H. Weare *
          *                                                  *
          ****************************************************
     >>>  JOB STARTED       AT Tue Apr 25 17:14:01 2023  <<<
          ================ input data ========================
 pseudopotential is not correctly formatted:Lu.vpp                                            

 Generated formatted_filename: ./perm/Lu.vpp
 - filtering pseudopotential -
 Error reading psi - bad grid
 nfft :                  108                  108                  108
 ngrid:                  140                  140                  140
 Error reading psi - bad grid
 nfft :                  108                  108                  108
 ngrid:                  140                  140                  140
 Error reading psi - bad grid

 Grid is being converted:
 ------------------------

 To turn off automatic grid conversion:

 set nwpw:psi_nogrid .false.

 old_filename: pspw-pbe-Lu1.movecs                               
 new_filename: pspw-pbe-Lu1.movecs                               
 converting  : 108x108x108 --> 140x140x140
converting .... psi:    1 spin: 1
converting .... psi:    2 spin: 1
converting .... psi:    3 spin: 1
converting .... psi:    4 spin: 1
converting .... psi:    5 spin: 1
converting .... psi:    6 spin: 1
converting .... psi:    7 spin: 1
converting .... psi:    8 spin: 1
converting .... psi:    9 spin: 1
converting .... psi:   10 spin: 1
converting .... psi:   11 spin: 1
converting .... psi:   12 spin: 1
converting .... psi:   13 spin: 1
converting .... psi:   14 spin: 1
converting .... psi:   15 spin: 1
converting .... psi:   16 spin: 1
converting .... psi:   17 spin: 1
converting .... psi:    1 spin: 2
converting .... psi:    2 spin: 2
converting .... psi:    3 spin: 2
converting .... psi:    4 spin: 2
converting .... psi:    5 spin: 2
converting .... psi:    6 spin: 2
converting .... psi:    7 spin: 2
converting .... psi:    8 spin: 2

 input psi filename:./perm/pspw-pbe-Lu1.movecs

 number of processors used:         8
 processor grid           :   8 x   1
 parallel mapping         : 2d-hcurve
 parallel mapping         :  balanced
 number of threads        :         1
 parallel io              :       off

 options:
      boundary conditions  = periodic    (version3)
      electron spin        = unrestricted
      exchange-correlation = PBE96 (White and Bird) parameterization

 elements involved in the cluster:
      1: Lu  valence charge: 25.0000  lmax=  3
             comment    : Parameterized Lu TM psp (4f5s5p5d6s6p projectors, 4/5/2022 by EJB)
             pseudpotential type            :   0
             highest angular component      :   3
             local potential used           :   0
             number of non-local projections:  25
             semicore corrections included  :  0.800 (radius)  8.723 (charge)
             cutoff =   1.618   1.828   1.813   1.403


 total charge:   0.000

 atomic composition:
     Lu  :    1

 number of electrons: spin up=    17 (  17 per task)  down=     8 (   8 per task) (Fourier space)
 number of orbitals : spin up=    17 (  17 per task)  down=     8 (   8 per task) (Fourier space)

 supercell:
      cell_name:  cell_default                                      
      lattice:    a1=<  26.000   0.000   0.000 >
                  a2=<   0.000  26.000   0.000 >
                  a3=<   0.000   0.000  26.000 >
      reciprocal: b1=<   0.242   0.000   0.000 >
                  b2=<   0.000   0.242   0.000 >
                  b3=<   0.000   0.000   0.242 >
      lattice:    a=      26.000 b=     26.000 c=      26.000
                  alpha=  90.000 beta=  90.000 gamma=  90.000
                  omega=     17576.0

      density cutoff=120.000  fft=140x140x140(   551891 waves    68986 per task)
      wavefnc cutoff= 60.000  fft=140x140x140(   195216 waves    24402 per task)
      Ewald summation: cut radius=    8.28  and  1
                       Madelung Wigner-Seitz=    1.76011888 (alpha=    2.83729748 rs=16.12911276)

 technical parameters:
      time step=      1.00     fictitious mass=  400000.0
      tolerance=0.100E-06 (energy)   0.100E-06 (density)
      maximum iterations =      1000 (   10 inner    100 outer )





== Energy Calculation ==


          ============ Grassmann lmbfgs iteration ============
     >>>  ITERATION STARTED AT Tue Apr 25 17:14:12 2023  <<<
    iter.           Energy         DeltaE       DeltaRho 
    ------------------------------------------------------
      10   -0.2605636685E+03   -0.81223E-02    0.23635E+01
     -  10 steepest descent iterations performed
      20   -0.2605774325E+03   -0.43425E-03    0.77616E-03
      30   -0.2605785758E+03   -0.43681E-04    0.83708E-04
      40   -0.2609583955E+03   -0.29489E+00    0.21256E+00
     -  10 steepest descent iterations performed
      50   -0.2638402196E+03   -0.79892E-01    0.80232E+00
     -  10 steepest descent iterations performed
      60   -0.2643422140E+03   -0.31659E-01    0.21893E+00
     -  10 steepest descent iterations performed
      70   -0.2644483712E+03   -0.21437E-02    0.15156E-01
      80   -0.2644733953E+03   -0.26448E-02    0.54925E-01
     -  10 steepest descent iterations performed
      90   -0.2644838473E+03   -0.81838E-03    0.45179E-02
     100   -0.2644906784E+03   -0.57045E-03    0.27816E-01
     110   -0.2644941558E+03   -0.99192E-04    0.12889E-01
     120   -0.2644963903E+03   -0.39843E-03    0.21197E-01
     -  10 steepest descent iterations performed
     130   -0.2644978080E+03   -0.84862E-04    0.55415E-03
     140   -0.2644987068E+03   -0.11375E-03    0.43538E-02
     -  10 steepest descent iterations performed
     150   -0.2644991781E+03   -0.30832E-04    0.20422E-03
     160   -0.2644995807E+03   -0.37978E-04    0.21928E-02
     -  10 steepest descent iterations performed
     170   -0.2644998469E+03   -0.18468E-04    0.12136E-03
     180   -0.2645000072E+03   -0.15432E-04    0.65252E-03
     190   -0.2645003233E+03   -0.11901E-04    0.48213E-02
     200   -0.2645003832E+03   -0.22031E-05    0.20529E-03
     210   -0.2645003896E+03   -0.58927E-06    0.74030E-05
     220   -0.2645003969E+03   -0.11213E-05    0.62454E-04
     -  10 steepest descent iterations performed
     230   -0.2645004041E+03   -0.59569E-06    0.36934E-05
     240   -0.2645004099E+03   -0.92607E-06    0.26781E-04
     -  10 steepest descent iterations performed
     250   -0.2645004147E+03   -0.46982E-06    0.45137E-05
     260   -0.2645004207E+03   -0.46805E-06    0.45353E-04
     270   -0.2645004695E+03   -0.11220E-04    0.53575E-02
     -  10 steepest descent iterations performed
     280   -0.2645005045E+03   -0.22655E-05    0.47869E-05
     290   -0.2645005129E+03   -0.62621E-06    0.10383E-04
     300   -0.2645005272E+03   -0.11035E-05    0.17111E-03
     -  10 steepest descent iterations performed
     310   -0.2645005393E+03   -0.80752E-06    0.68110E-05
     320   -0.2645005477E+03   -0.12739E-05    0.40547E-04
     -  10 steepest descent iterations performed
     330   -0.2645005550E+03   -0.91783E-06    0.63624E-05
     340   -0.2645005678E+03   -0.78329E-06    0.11551E-03
     350   -0.2645006810E+03   -0.14116E-04    0.14183E-01
     -  10 steepest descent iterations performed
     360   -0.2645007565E+03   -0.22642E-05    0.51942E-05
     370   -0.2645007711E+03   -0.91480E-06    0.13088E-04
     380   -0.2645007815E+03   -0.96555E-06    0.54932E-04
     -  10 steepest descent iterations performed
     390   -0.2645007909E+03   -0.13117E-05    0.12492E-04
     -  10 steepest descent iterations performed
     400   -0.2645007967E+03   -0.59440E-06    0.72659E-05
     410   -0.2645008624E+03   -0.20015E-04    0.43707E-02
     -  10 steepest descent iterations performed
     420   -0.2645009390E+03   -0.27964E-05    0.69064E-05
     430   -0.2645009490E+03   -0.10136E-05    0.15397E-04
     440   -0.2645010308E+03   -0.73899E-05    0.41271E-02
     -  10 steepest descent iterations performed
     450   -0.2645011053E+03   -0.52028E-05    0.25079E-04
     460   -0.2645011364E+03   -0.17611E-05    0.54961E-04
     470   -0.2645011691E+03   -0.60165E-05    0.33114E-03
     -  10 steepest descent iterations performed
     480   -0.2645011953E+03   -0.22513E-05    0.12194E-04
     490   -0.2645012237E+03   -0.29231E-05    0.19841E-03
     -  10 steepest descent iterations performed
     500   -0.2645012429E+03   -0.15453E-05    0.12273E-04
     510   -0.2645012716E+03   -0.39040E-05    0.23437E-03
     -  10 steepest descent iterations performed
     520   -0.2645012933E+03   -0.25350E-05    0.14431E-04
     530   -0.2645013139E+03   -0.21287E-05    0.11409E-03
     540   -0.2645014074E+03   -0.10251E-04    0.45397E-02
     -  10 steepest descent iterations performed
     550   -0.2645015157E+03   -0.70987E-05    0.23267E-04
     560   -0.2645015564E+03   -0.37203E-05    0.59427E-04
     570   -0.2645015920E+03   -0.51723E-05    0.23757E-03
     -  10 steepest descent iterations performed
     580   -0.2645016281E+03   -0.45198E-05    0.29934E-04
     590   -0.2645016770E+03   -0.55972E-05    0.37866E-03
     -  10 steepest descent iterations performed
     600   -0.2645017192E+03   -0.44502E-05    0.30088E-04
     610   -0.2645017790E+03   -0.70376E-05    0.40694E-03
     -  10 steepest descent iterations performed
     620   -0.2645018298E+03   -0.70878E-05    0.49169E-04
     -  10 steepest descent iterations performed
     630   -0.2645018563E+03   -0.28394E-05    0.28140E-04
     640   -0.2645020244E+03   -0.24778E-04    0.60918E-02
     -  10 steepest descent iterations performed
     650   -0.2645021581E+03   -0.67963E-05    0.16705E-04
     660   -0.2645021885E+03   -0.37529E-05    0.61558E-04
     670   -0.2645022455E+03   -0.30189E-05    0.63624E-03
     680   -0.2645025385E+03   -0.45342E-04    0.23900E-01
     -  10 steepest descent iterations performed
     690   -0.2645026657E+03   -0.38977E-05    0.46642E-05
     700   -0.2645026884E+03   -0.13090E-05    0.18385E-04
     710   -0.2645027064E+03   -0.10977E-05    0.86623E-04
     720   -0.2645027358E+03   -0.42263E-05    0.64551E-03
     -  10 steepest descent iterations performed
     730   -0.2645027546E+03   -0.97197E-06    0.32808E-05
     740   -0.2645027617E+03   -0.87531E-06    0.15866E-04
