 argument  1 = Yb1.nw



============================== echo of input deck ==============================
title "swnc: e theory=pspw xc=pbe formula=H130O65yb1 charge=0 mult=3"
#machinejob:expert

permanent_dir ./perm
scratch_dir   ./perm

echo

start pspw-pbe-Yb1

memory 2300 mb

charge 0

geometry
Yb 0.0 0.0 0.0
end


nwpw
  simulation_cell
     SC 26.0
     #boundary_conditions aperiodic
  end

  ### pseudopotential block begin ###
  ### pseudopotential block end   ###
  2d-hcurve
  time_step 1.0
  cutoff 80.0
  lmbfgs

  mult 5
  xc pbe96

end
set nwpw:kbpp_ray    .true.
set nwpw:kbpp_filter .true.
#set nwpw:gram-schmidt .true.
set nwpw:cif_filename Yb1

#task pspw steepest_descent
task pspw energy ignore

================================================================================


                                         
                                         


             Northwest Computational Chemistry Package (NWChem) 7.2.0
             --------------------------------------------------------


                    Environmental Molecular Sciences Laboratory
                       Pacific Northwest National Laboratory
                                Richland, WA 99352

                              Copyright (c) 1994-2022
                       Pacific Northwest National Laboratory
                            Battelle Memorial Institute

             NWChem is an open-source computational chemistry package
                        distributed under the terms of the
                      Educational Community License (ECL) 2.0
             A copy of the license is included with this distribution
                              in the LICENSE.TXT file

                                  ACKNOWLEDGMENT
                                  --------------

            This software and its documentation were developed at the
            EMSL at Pacific Northwest National Laboratory, a multiprogram
            national laboratory, operated for the U.S. Department of Energy
            by Battelle under Contract Number DE-AC05-76RL01830. Support
            for this work was provided by the Department of Energy Office
            of Biological and Environmental Research, Office of Basic
            Energy Sciences, and the Office of Advanced Scientific Computing.


           Job information
           ---------------

    hostname        = Erics-MacBook-Pro.local
    program         = nwchem
    date            = Sun Apr 23 20:14:45 2023

    compiled        = Mon_Mar_27_19:09:42_2023
    source          = /Users/bylaska/nwchem-releases/nwchem
    nwchem branch   = 7.2.0
    nwchem revision = v7.2.0-beta1-380-gdf1eef5276
    ga revision     = 5.8.0
    use scalapack   = F
    input           = Yb1.nw
    prefix          = pspw-pbe-Yb1.
    data base       = ./perm/pspw-pbe-Yb1.db
    status          = startup
    nproc           =        6
    time left       =     -1s



           Memory information
           ------------------

    heap     =   75366396 doubles =    575.0 Mbytes
    stack    =   75366401 doubles =    575.0 Mbytes
    global   =  150732800 doubles =   1150.0 Mbytes (distinct from heap & stack)
    total    =  301465597 doubles =   2300.0 Mbytes
    verify   = yes
    hardfail = no 


           Directory information
           ---------------------

  0 permanent = ./perm
  0 scratch   = ./perm




                                NWChem Input Module
                                -------------------


           swnc: e theory=pspw xc=pbe formula=H130O65yb1 charge=0 mult=3
           -------------------------------------------------------------

 Scaling coordinates for geometry "geometry" by  1.889725989
 (inverse scale =  0.529177249)



                             Geometry "geometry" -> ""
                             -------------------------

 Output coordinates in angstroms (scale by  1.889725989 to convert to a.u.)

  No.       Tag          Charge          X              Y              Z
 ---- ---------------- ---------- -------------- -------------- --------------
    1 Yb                  70.0000     0.00000000     0.00000000     0.00000000

      Atomic Mass 
      ----------- 

      Yb               173.939000


 Effective nuclear repulsion energy (a.u.)       0.0000000000

            Nuclear Dipole moment (a.u.) 
            ----------------------------
        X                 Y               Z
 ---------------- ---------------- ----------------
     0.0000000000     0.0000000000     0.0000000000


            XYZ format geometry
            -------------------
     1
 geometry
 Yb                    0.00000000     0.00000000     0.00000000

          ****************************************************
          *                                                  *
          *               NWPW PSPW Calculation              *
          *                                                  *
          * [ (Grassmann/Stiefel manifold implementation)  ] *
          *                                                  *
          *      [ NorthWest Chemistry implementation ]      *
          *                                                  *
          *            version #5.10   06/12/02              *
          *                                                  *
          *    This code was developed by Eric J. Bylaska,   *
          *    and was based upon algorithms and code        *
          *    developed by the group of Prof. John H. Weare *
          *                                                  *
          ****************************************************
     >>>  JOB STARTED       AT Sun Apr 23 20:14:45 2023  <<<
          ================ input data ========================
 pseudopotential is not correctly formatted:Yb.vpp                                            

 Generated formatted_filename: ./perm/Yb.vpp
 - filtering pseudopotential -
 Error reading psi - bad grid
 nfft :                  140                  140                  140
 ngrid:                  150                  150                  150
 Error reading psi - bad grid
 nfft :                  140                  140                  140
 ngrid:                  150                  150                  150
 Error reading psi - bad grid

 Grid is being converted:
 ------------------------

 To turn off automatic grid conversion:

 set nwpw:psi_nogrid .false.

 old_filename: pspw-pbe-Yb1.movecs                               
 new_filename: pspw-pbe-Yb1.movecs                               
 converting  : 140x140x140 --> 150x150x150
converting .... psi:    1 spin: 1
converting .... psi:    2 spin: 1
converting .... psi:    3 spin: 1
converting .... psi:    4 spin: 1
converting .... psi:    5 spin: 1
converting .... psi:    6 spin: 1
converting .... psi:    7 spin: 1
converting .... psi:    8 spin: 1
converting .... psi:    9 spin: 1
converting .... psi:   10 spin: 1
converting .... psi:   11 spin: 1
converting .... psi:   12 spin: 1
converting .... psi:   13 spin: 1
converting .... psi:   14 spin: 1
converting .... psi:    1 spin: 2
converting .... psi:    2 spin: 2
converting .... psi:    3 spin: 2
converting .... psi:    4 spin: 2
converting .... psi:    5 spin: 2
converting .... psi:    6 spin: 2
converting .... psi:    7 spin: 2
converting .... psi:    8 spin: 2
converting .... psi:    9 spin: 2
converting .... psi:   10 spin: 2

 input psi filename:./perm/pspw-pbe-Yb1.movecs

 number of processors used:         6
 processor grid           :   6 x   1
 parallel mapping         : 2d-hcurve
 parallel mapping         :  balanced
 number of threads        :         1
 parallel io              :       off

 options:
      boundary conditions  = periodic    (version3)
      electron spin        = unrestricted
      exchange-correlation = PBE96 (White and Bird) parameterization

 elements involved in the cluster:
      1: Yb  valence charge: 24.0000  lmax=  3
             comment    : Parameterized Yb TM psp (4f5s5p5d6s6p projectors, 3/31/2022 by EJB)
             pseudpotential type            :   0
             highest angular component      :   3
             local potential used           :   0
             number of non-local projections:  25
             semicore corrections included  :  0.800 (radius)  9.280 (charge)
             cutoff =   1.618   1.828   1.213   1.403


 total charge:   0.000

 atomic composition:
     Yb  :    1

 number of electrons: spin up=    14 (  14 per task)  down=    10 (  10 per task) (Fourier space)
 number of orbitals : spin up=    14 (  14 per task)  down=    10 (  10 per task) (Fourier space)

 supercell:
      cell_name:  cell_default                                      
      lattice:    a1=<  26.000   0.000   0.000 >
                  a2=<   0.000  26.000   0.000 >
                  a3=<   0.000   0.000  26.000 >
      reciprocal: b1=<   0.242   0.000   0.000 >
                  b2=<   0.000   0.242   0.000 >
                  b3=<   0.000   0.000   0.242 >
      lattice:    a=      26.000 b=     26.000 c=      26.000
                  alpha=  90.000 beta=  90.000 gamma=  90.000
                  omega=     17576.0

      density cutoff=160.000  fft=150x150x150(   849355 waves   141560 per task)
      wavefnc cutoff= 80.000  fft=150x150x150(   300163 waves    50027 per task)
      Ewald summation: cut radius=    8.28  and  1
                       Madelung Wigner-Seitz=    1.76011888 (alpha=    2.83729748 rs=16.12911276)

 technical parameters:
      time step=      1.00     fictitious mass=  400000.0
      tolerance=0.100E-06 (energy)   0.100E-06 (density)
      maximum iterations =      1000 (   10 inner    100 outer )





== Energy Calculation ==


          ============ Grassmann lmbfgs iteration ============
     >>>  ITERATION STARTED AT Sun Apr 23 20:15:04 2023  <<<
    iter.           Energy         DeltaE       DeltaRho 
    ------------------------------------------------------
      10   -0.2444920028E+03   -0.79147E-04    0.42617E-01
      20   -0.2444922341E+03   -0.56191E-05    0.73075E-05
      30   -0.2444922601E+03   -0.18939E-05    0.36736E-05
      40   -0.2444922759E+03   -0.15694E-05    0.15014E-04
      50   -0.2444922893E+03   -0.14755E-05    0.35861E-04
      60   -0.2444923062E+03   -0.22197E-05    0.11232E-03
     -  10 steepest descent iterations performed
      70   -0.2444923164E+03   -0.78248E-06    0.11791E-05
      80   -0.2444923239E+03   -0.63812E-06    0.75117E-05
      90   -0.2444923317E+03   -0.74388E-06    0.25335E-04
     -  10 steepest descent iterations performed
     100   -0.2444923368E+03   -0.58364E-06    0.14689E-05
     110   -0.2444923436E+03   -0.80147E-06    0.16013E-04
     -  10 steepest descent iterations performed
     120   -0.2444923474E+03   -0.40396E-06    0.11241E-05
     130   -0.2444923529E+03   -0.53432E-06    0.16466E-04
     -  10 steepest descent iterations performed
     140   -0.2444923570E+03   -0.41719E-06    0.10257E-05
     150   -0.2444923610E+03   -0.43513E-06    0.86089E-05
     -  10 steepest descent iterations performed
     160   -0.2444923644E+03   -0.35784E-06    0.10092E-05
     170   -0.2444923685E+03   -0.38602E-06    0.10884E-04
     -  10 steepest descent iterations performed
     180   -0.2444923724E+03   -0.42216E-06    0.11455E-05
     -  10 steepest descent iterations performed
     190   -0.2444923744E+03   -0.26120E-06    0.11489E-05
     200   -0.2444924005E+03   -0.33174E-05    0.77707E-03
     -  10 steepest descent iterations performed
     210   -0.2444924236E+03   -0.71023E-06    0.97472E-06
     220   -0.2444924262E+03   -0.25474E-06    0.11369E-05
     230   -0.2444924308E+03   -0.50157E-06    0.16360E-04
     -  10 steepest descent iterations performed
     240   -0.2444924350E+03   -0.59929E-06    0.10794E-05
     -  10 steepest descent iterations performed
     250   -0.2444924368E+03   -0.22228E-06    0.80405E-06
     260   -0.2444924509E+03   -0.31006E-05    0.24313E-03
     -  10 steepest descent iterations performed
     270   -0.2444924628E+03   -0.40876E-06    0.52018E-06
     280   -0.2444924656E+03   -0.26369E-06    0.17735E-05
     290   -0.2444924694E+03   -0.30606E-06    0.98020E-05
     -  10 steepest descent iterations performed
     300   -0.2444924728E+03   -0.31379E-06    0.13878E-05
     -  10 steepest descent iterations performed
     310   -0.2444924744E+03   -0.15221E-06    0.47408E-06
     320   -0.2444924826E+03   -0.23364E-05    0.87396E-04
     -  10 steepest descent iterations performed
     330   -0.2444924899E+03   -0.22280E-06    0.42332E-06
     340   -0.2444924921E+03   -0.21262E-06    0.20015E-05
     350   -0.2444924976E+03   -0.31050E-06    0.30822E-04
     -  10 steepest descent iterations performed
     360   -0.2444925024E+03   -0.43344E-06    0.92290E-06
     -  10 steepest descent iterations performed
     370   -0.2444925042E+03   -0.13770E-06    0.49099E-06
     380   -0.2444925099E+03   -0.14952E-05    0.33875E-04
     -  10 steepest descent iterations performed
     390   -0.2444925144E+03   -0.33525E-06    0.58916E-06
     400   -0.2444925172E+03   -0.28299E-06    0.35215E-05
     410   -0.2444925217E+03   -0.37354E-06    0.20310E-04
     -  10 steepest descent iterations performed
     420   -0.2444925256E+03   -0.37521E-06    0.74909E-06
     -  10 steepest descent iterations performed
     430   -0.2444925274E+03   -0.12875E-06    0.41143E-06
     440   -0.2444925321E+03   -0.10306E-05    0.23023E-04
     -  10 steepest descent iterations performed
     450   -0.2444925354E+03   -0.28626E-06    0.44028E-06
     460   -0.2444925381E+03   -0.21580E-06    0.37814E-05
     470   -0.2444925414E+03   -0.24747E-06    0.12024E-04
     -  10 steepest descent iterations performed
     480   -0.2444925447E+03   -0.34173E-06    0.67976E-06
     -  10 steepest descent iterations performed
     490   -0.2444925461E+03   -0.99597E-07    0.30512E-06
     500   -0.2444925500E+03   -0.82758E-06    0.17948E-04
     -  10 steepest descent iterations performed
     510   -0.2444925528E+03   -0.20278E-06    0.27155E-06
     520   -0.2444925549E+03   -0.19692E-06    0.27517E-05
     530   -0.2444925585E+03   -0.18438E-06    0.16170E-04
     540   -0.2444926107E+03   -0.40761E-05    0.52041E-02
     -  10 steepest descent iterations performed
     550   -0.2444926276E+03   -0.43054E-06    0.19855E-06
     560   -0.2444926301E+03   -0.22210E-06    0.65024E-07
     570   -0.2444926315E+03   -0.27976E-07    0.13708E-06
     580   -0.2444926315E+03   -0.37734E-07    0.97534E-09
  *** tolerance ok. iteration terminated
     >>>  ITERATION ENDED   AT Sun Apr 23 20:32:13 2023  <<<


==  Summary Of Results  ==

 number of electrons: spin up=   14.00000  down=   10.00000 (real space)

 total     energy    :  -0.2444926315E+03 (   -0.24449E+03/ion)
 total orbital energy:  -0.1539056222E+02 (   -0.64127E+00/electron)
 hartree   energy    :   0.1911849050E+03 (    0.79660E+01/electron)
 exc-corr  energy    :  -0.3747054065E+02 (   -0.15613E+01/electron)
 ion-ion   energy    :  -0.3142852593E+02 (   -0.31429E+02/ion)

 kinetic (planewave) :   0.2261085624E+03 (    0.94212E+01/electron)
 V_local (planewave) :  -0.4089088352E+03 (   -0.17038E+02/electron)
 V_nl    (planewave) :  -0.1839781970E+03 (   -0.76658E+01/electron)
 V_Coul  (planewave) :   0.3823698099E+03 (    0.15932E+02/electron)
 V_xc.   (planewave) :  -0.3098190226E+02 (   -0.12909E+01/electron)
 Virial Coefficient  :  -0.1068067136E+01

 orbital energies:
    -0.8302381E-01 (  -2.259eV)
    -0.8451011E-01 (  -2.300eV)
    -0.1986174E+00 (  -5.405eV)
    -0.3164623E+00 (  -8.611eV)
    -0.3205947E+00 (  -8.724eV)    -0.2714443E+00 (  -7.386eV)
    -0.3217667E+00 (  -8.756eV)    -0.2743948E+00 (  -7.467eV)
    -0.3240353E+00 (  -8.818eV)    -0.2782166E+00 (  -7.571eV)
    -0.3273690E+00 (  -8.908eV)    -0.2921009E+00 (  -7.949eV)
    -0.3304265E+00 (  -8.991eV)    -0.2970666E+00 (  -8.084eV)
    -0.3877943E+00 ( -10.553eV)    -0.3022506E+00 (  -8.225eV)
    -0.1126493E+01 ( -30.654eV)    -0.1090959E+01 ( -29.687eV)
    -0.1129386E+01 ( -30.732eV)    -0.1091640E+01 ( -29.705eV)
    -0.1131693E+01 ( -30.795eV)    -0.1094688E+01 ( -29.788eV)
    -0.2175721E+01 ( -59.205eV)    -0.2139908E+01 ( -58.230eV)

 Total PSPW energy     :  -0.2444926315E+03


=== Spin Contamination ===

 <Sexact^2> =    6.0000000000000000     
 <S^2>      =    6.0016278885835828     



== Center of Charge ==

spin up     (    0.0001,   -0.0000,   -0.0002 )
spin down   (   -0.0000,   -0.0000,    0.0000 )
     total  (    0.0001,   -0.0000,   -0.0001 )
ionic       (    0.0000,    0.0000,    0.0000 )


== Molecular Dipole wrt Center of Mass ==

mu   =  (   -0.0016,    0.0003,    0.0024 ) au
|mu| =     0.0029 au,       0.0073 Debye

 output psi filename:./perm/pspw-pbe-Yb1.movecs

 Writing Crystallographic Information File:./perm/Yb1.cif
   - cell not shifted (nwpw:cif_shift_cell .false.)


== Timing ==

cputime in seconds
  prologue    :   0.196457E+02
  main loop   :   0.102839E+04
  epilogue    :   0.883076E+00
  total       :   0.104892E+04
  cputime/step:   0.675683E+00       (    1522 evalulations,     571 linesearches)


Time spent doing                        total          step       percent
  total time                 :   0.104892E+04  0.689173E+00       100.0 %
  i/o time                   :   0.188901E+02  0.124114E-01         1.8 %
  FFTs                       :   0.189509E+03  0.124513E+00        18.1 %
  dot products               :   0.273432E+02  0.179653E-01         2.6 %
  geodesic                   :   0.516865E+02  0.339596E-01         4.9 %
  ffm_dgemm                  :   0.106995E+02  0.702987E-02         1.0 %
  fmf_dgemm                  :   0.441584E+02  0.290134E-01         4.2 %
  mmm_dgemm                  :   0.449259E-01  0.295177E-04         0.0 %
  m_diagonalize              :   0.249475E-01  0.163913E-04         0.0 %
  exchange correlation       :   0.378698E+03  0.248816E+00        36.1 %
  local pseudopotentials     :   0.106800E-02  0.701708E-06         0.0 %
  non-local pseudopotentials :   0.305637E+02  0.200813E-01         2.9 %
  hartree potentials         :   0.111087E+01  0.729875E-03         0.1 %
  ion-ion interaction        :   0.811250E-01  0.533016E-04         0.0 %
  structure factors          :   0.243451E+00  0.159954E-03         0.0 %
  phase factors              :   0.499900E-05  0.328449E-08         0.0 %
  masking and packing        :   0.469169E+02  0.308258E-01         4.5 %
  queue fft                  :   0.435636E+03  0.286226E+00        41.5 %
  queue fft (serial)         :   0.171538E+03  0.112705E+00        16.4 %
  queue fft (message passing):   0.252189E+03  0.165696E+00        24.0 %
  non-local psp FFM          :   0.153429E+02  0.100807E-01         1.5 %
  non-local psp FMF          :   0.125719E+02  0.826014E-02         1.2 %
  non-local psp FFM A        :   0.226960E+01  0.149120E-02         0.2 %
  non-local psp FFM B        :   0.127200E+02  0.835742E-02         1.2 %

     >>>  JOB COMPLETED     AT Sun Apr 23 20:32:14 2023  <<<

 Task  times  cpu:     1048.9s     wall:     1048.9s


                                NWChem Input Module
                                -------------------


 Summary of allocated global arrays
-----------------------------------
  No active global arrays


MA_summarize_allocated_blocks: starting scan ...
MA_summarize_allocated_blocks: scan completed: 0 heap blocks, 0 stack blocks
MA usage statistics:

	allocation statistics:
					      heap	     stack
					      ----	     -----
	current number of blocks	         0	         0
	maximum number of blocks	       277	        21
	current total bytes		         0	         0
	maximum total bytes		 577883272	 138746856
	maximum total K-bytes		    577884	    138747
	maximum total M-bytes		       578	       139


                                     CITATION
                                     --------
                Please cite the following reference when publishing
                           results obtained with NWChem:

          E. Apra, E. J. Bylaska, W. A. de Jong, N. Govind, K. Kowalski,
       T. P. Straatsma, M. Valiev, H. J. J. van Dam, Y. Alexeev, J. Anchell,
       V. Anisimov, F. W. Aquino, R. Atta-Fynn, J. Autschbach, N. P. Bauman,
     J. C. Becca, D. E. Bernholdt, K. Bhaskaran-Nair, S. Bogatko, P. Borowski,
         J. Boschen, J. Brabec, A. Bruner, E. Cauet, Y. Chen, G. N. Chuev,
      C. J. Cramer, J. Daily, M. J. O. Deegan, T. H. Dunning Jr., M. Dupuis,
   K. G. Dyall, G. I. Fann, S. A. Fischer, A. Fonari, H. Fruchtl, L. Gagliardi,
      J. Garza, N. Gawande, S. Ghosh, K. Glaesemann, A. W. Gotz, J. Hammond,
       V. Helms, E. D. Hermes, K. Hirao, S. Hirata, M. Jacquelin, L. Jensen,
   B. G. Johnson, H. Jonsson, R. A. Kendall, M. Klemm, R. Kobayashi, V. Konkov,
      S. Krishnamoorthy, M. Krishnan, Z. Lin, R. D. Lins, R. J. Littlefield,
      A. J. Logsdail, K. Lopata, W. Ma, A. V. Marenich, J. Martin del Campo,
   D. Mejia-Rodriguez, J. E. Moore, J. M. Mullin, T. Nakajima, D. R. Nascimento,
    J. A. Nichols, P. J. Nichols, J. Nieplocha, A. Otero-de-la-Roza, B. Palmer,
    A. Panyala, T. Pirojsirikul, B. Peng, R. Peverati, J. Pittner, L. Pollack,
   R. M. Richard, P. Sadayappan, G. C. Schatz, W. A. Shelton, D. W. Silverstein,
   D. M. A. Smith, T. A. Soares, D. Song, M. Swart, H. L. Taylor, G. S. Thomas,
            V. Tipparaju, D. G. Truhlar, K. Tsemekhman, T. Van Voorhis,
      A. Vazquez-Mayagoitia, P. Verma, O. Villa, A. Vishnu, K. D. Vogiatzis,
        D. Wang, J. H. Weare, M. J. Williamson, T. L. Windus, K. Wolinski,
        A. T. Wong, Q. Wu, C. Yang, Q. Yu, M. Zacharias, Z. Zhang, Y. Zhao,
                                and R. J. Harrison
                        "NWChem: Past, present, and future
                         J. Chem. Phys. 152, 184102 (2020)
                               doi:10.1063/5.0004997

                                      AUTHORS
                                      -------
  E. Apra, E. J. Bylaska, N. Govind, K. Kowalski, M. Valiev, D. Mejia-Rodriguez,
       A. Kunitsa, N. P. Bauman, A. Panyala, W. A. de Jong, T. P. Straatsma,
   H. J. J. van Dam, D. Wang, T. L. Windus, J. Hammond, J. Autschbach, A. Woods,
    K. Bhaskaran-Nair, J. Brabec, K. Lopata, S. A. Fischer, S. Krishnamoorthy,
     M. Jacquelin, W. Ma, M. Klemm, O. Villa, Y. Chen, V. Anisimov, F. Aquino,
     S. Hirata, M. T. Hackler, E. Hermes, L. Jensen, J. E. Moore, J. C. Becca,
      V. Konjkov, T. Risthaus, M. Malagoli, A. Marenich, A. Otero-de-la-Roza,
        J. Mullin, P. Nichols, R. Peverati, J. Pittner, Y. Zhao, P.-D. Fan,
        A. Fonari, M. J. Williamson, R. J. Harrison, J. R. Rehr, M. Dupuis,
     D. Silverstein, D. M. A. Smith, J. Nieplocha, V. Tipparaju, M. Krishnan,
     B. E. Van Kuiken, A. Vazquez-Mayagoitia, M. Swart, Q. Wu, T. Van Voorhis,
     A. A. Auer, M. Nooijen, L. D. Crosby, E. Brown, G. Cisneros, G. I. Fann,
   H. Fruchtl, J. Garza, K. Hirao, R. A. Kendall, J. A. Nichols, K. Tsemekhman,
    K. Wolinski, J. Anchell, D. E. Bernholdt, P. Borowski, T. Clark, D. Clerc,
   H. Dachsel, M. J. O. Deegan, K. Dyall, D. Elwood, E. Glendening, M. Gutowski,
   A. C. Hess, J. Jaffe, B. G. Johnson, J. Ju, R. Kobayashi, R. Kutteh, Z. Lin,
   R. Littlefield, X. Long, B. Meng, T. Nakajima, S. Niu, L. Pollack, M. Rosing,
   K. Glaesemann, G. Sandrone, M. Stave, H. Taylor, G. Thomas, J. H. van Lenthe,
                               A. T. Wong, Z. Zhang.

 Total times  cpu:     1048.9s     wall:     1048.9s
