 argument  1 = Nd1.nw



============================== echo of input deck ==============================
title "swnc: e theory=pspw xc=pbe formula=H130O65nd1 charge=0 mult=3"
#machinejob:expert

permanent_dir ./perm
scratch_dir   ./perm

echo

start pspw-pbe-Nd1

memory 2300 mb

charge 0

geometry
Nd 0.0 0.0 0.0
end


nwpw
  simulation_cell
     SC 26.0
     #boundary_conditions aperiodic
  end

  ### pseudopotential block begin ###
  ### pseudopotential block end   ###
  2d-hcurve
  time_step 1.0
  cutoff 70.0
  lmbfgs

  mult 1
  xc pbe96

end
set nwpw:kbpp_ray    .true.
set nwpw:kbpp_filter .true.
#set nwpw:gram-schmidt .true.
set nwpw:cif_filename Nd1

#task pspw steepest_descent
task pspw energy ignore

================================================================================


                                         
                                         


             Northwest Computational Chemistry Package (NWChem) 7.2.0
             --------------------------------------------------------


                    Environmental Molecular Sciences Laboratory
                       Pacific Northwest National Laboratory
                                Richland, WA 99352

                              Copyright (c) 1994-2022
                       Pacific Northwest National Laboratory
                            Battelle Memorial Institute

             NWChem is an open-source computational chemistry package
                        distributed under the terms of the
                      Educational Community License (ECL) 2.0
             A copy of the license is included with this distribution
                              in the LICENSE.TXT file

                                  ACKNOWLEDGMENT
                                  --------------

            This software and its documentation were developed at the
            EMSL at Pacific Northwest National Laboratory, a multiprogram
            national laboratory, operated for the U.S. Department of Energy
            by Battelle under Contract Number DE-AC05-76RL01830. Support
            for this work was provided by the Department of Energy Office
            of Biological and Environmental Research, Office of Basic
            Energy Sciences, and the Office of Advanced Scientific Computing.


           Job information
           ---------------

    hostname        = Erics-MacBook-Pro.local
    program         = nwchem
    date            = Fri Apr 21 14:48:38 2023

    compiled        = Mon_Mar_27_19:09:42_2023
    source          = /Users/bylaska/nwchem-releases/nwchem
    nwchem branch   = 7.2.0
    nwchem revision = v7.2.0-beta1-380-gdf1eef5276
    ga revision     = 5.8.0
    use scalapack   = F
    input           = Nd1.nw
    prefix          = pspw-pbe-Nd1.
    data base       = ./perm/pspw-pbe-Nd1.db
    status          = startup
    nproc           =        6
    time left       =     -1s



           Memory information
           ------------------

    heap     =   75366396 doubles =    575.0 Mbytes
    stack    =   75366401 doubles =    575.0 Mbytes
    global   =  150732800 doubles =   1150.0 Mbytes (distinct from heap & stack)
    total    =  301465597 doubles =   2300.0 Mbytes
    verify   = yes
    hardfail = no 


           Directory information
           ---------------------

  0 permanent = ./perm
  0 scratch   = ./perm




                                NWChem Input Module
                                -------------------


           swnc: e theory=pspw xc=pbe formula=H130O65nd1 charge=0 mult=3
           -------------------------------------------------------------

 Scaling coordinates for geometry "geometry" by  1.889725989
 (inverse scale =  0.529177249)



                             Geometry "geometry" -> ""
                             -------------------------

 Output coordinates in angstroms (scale by  1.889725989 to convert to a.u.)

  No.       Tag          Charge          X              Y              Z
 ---- ---------------- ---------- -------------- -------------- --------------
    1 Nd                  60.0000     0.00000000     0.00000000     0.00000000

      Atomic Mass 
      ----------- 

      Nd               143.909900


 Effective nuclear repulsion energy (a.u.)       0.0000000000

            Nuclear Dipole moment (a.u.) 
            ----------------------------
        X                 Y               Z
 ---------------- ---------------- ----------------
     0.0000000000     0.0000000000     0.0000000000


            XYZ format geometry
            -------------------
     1
 geometry
 Nd                    0.00000000     0.00000000     0.00000000

          ****************************************************
          *                                                  *
          *               NWPW PSPW Calculation              *
          *                                                  *
          * [ (Grassmann/Stiefel manifold implementation)  ] *
          *                                                  *
          *      [ NorthWest Chemistry implementation ]      *
          *                                                  *
          *            version #5.10   06/12/02              *
          *                                                  *
          *    This code was developed by Eric J. Bylaska,   *
          *    and was based upon algorithms and code        *
          *    developed by the group of Prof. John H. Weare *
          *                                                  *
          ****************************************************
     >>>  JOB STARTED       AT Fri Apr 21 14:48:38 2023  <<<
          ================ input data ========================
  library name resolved from: compiled reference
  NWCHEM_NWPW_LIBRARY set to: </Users/bylaska/nwchem-releases/nwchem/src/nwpw/libraryps/>
 Generating 1d pseudopotential for Nd  

 Generated formatted_filename: ./perm/Nd.vpp
 - filtering pseudopotential -
 random planewave guess, initial psi:pspw-pbe-Nd1.movecs                               
 -   spin, nalpha, nbeta:                    1                    7                    0

 input psi filename:./perm/pspw-pbe-Nd1.movecs

 Warning - K.S. orbitals are not orthonormal. Applying Gram-Schmidt orthonormalization.
         - exact norm=0.700000E+01 norm=0.474447E+01 corrected norm=0.700000E+01 (error=0.225553E+01)


 number of processors used:         6
 processor grid           :   6 x   1
 parallel mapping         : 2d-hcurve
 parallel mapping         :  balanced
 number of threads        :         1
 parallel io              :       off

 options:
      boundary conditions  = periodic    (version3)
      electron spin        = restricted
      exchange-correlation = PBE96 (White and Bird) parameterization

 elements involved in the cluster:
      1: Nd  valence charge: 14.0000  lmax=  3
             comment    : Parameterized Nd TM psp (4f5s5p5d6s6p projectors, 4/2/2022 by EJB)
             pseudpotential type            :   0
             highest angular component      :   3
             local potential used           :   0
             number of non-local projections:  25
             semicore corrections included  :  0.900 (radius) 13.052 (charge)
             cutoff =   1.618   1.828   2.213   1.403


 total charge:   0.000

 atomic composition:
     Nd  :    1

 number of electrons: spin up=     7 (   7 per task)  down=     7 (   7 per task) (Fourier space)
 number of orbitals : spin up=     7 (   7 per task)  down=     7 (   7 per task) (Fourier space)

 supercell:
      cell_name:  cell_default                                      
      lattice:    a1=<  26.000   0.000   0.000 >
                  a2=<   0.000  26.000   0.000 >
                  a3=<   0.000   0.000  26.000 >
      reciprocal: b1=<   0.242   0.000   0.000 >
                  b2=<   0.000   0.242   0.000 >
                  b3=<   0.000   0.000   0.242 >
      lattice:    a=      26.000 b=     26.000 c=      26.000
                  alpha=  90.000 beta=  90.000 gamma=  90.000
                  omega=     17576.0

      density cutoff= 35.000  fft= 70x 70x 70(    86963 waves    14493 per task)
      wavefnc cutoff= 17.500  fft= 70x 70x 70(    30723 waves     5120 per task)
      Ewald summation: cut radius=    8.28  and  1
                       Madelung Wigner-Seitz=    1.76011888 (alpha=    2.83729748 rs=16.12911276)

 technical parameters:
      time step=      1.00     fictitious mass=  400000.0
      tolerance=0.100E-06 (energy)   0.100E-06 (density)
      maximum iterations =      1000 (   10 inner    100 outer )





== Energy Calculation ==


          ============ Grassmann lmbfgs iteration ============
     >>>  ITERATION STARTED AT Fri Apr 21 14:48:40 2023  <<<
    iter.           Energy         DeltaE       DeltaRho 
    ------------------------------------------------------
     -  15 steepest descent iterations performed
      10   -0.6834845952E+02   -0.57036E+00    0.27634E+01
     -  10 steepest descent iterations performed
      20   -0.6987362480E+02   -0.16256E-01    0.75701E-01
     -  10 steepest descent iterations performed
      30   -0.6991432425E+02   -0.11093E-02    0.13312E-02
      40   -0.6991907006E+02   -0.19401E-03    0.23366E-03
      50   -0.6992173257E+02   -0.35062E-03    0.13505E-02
     -  10 steepest descent iterations performed
      60   -0.6992466637E+02   -0.40658E-03    0.52088E-03
     -  10 steepest descent iterations performed
      70   -0.6992679477E+02   -0.20431E-03    0.28379E-03
      80   -0.6993129430E+02   -0.30729E-03    0.49030E-02
     -  10 steepest descent iterations performed
      90   -0.6993266078E+02   -0.99012E-04    0.13964E-03
     100   -0.6993517674E+02   -0.34691E-03    0.28426E-02
     -  10 steepest descent iterations performed
     110   -0.6993668592E+02   -0.97731E-04    0.11086E-03
     120   -0.6993776072E+02   -0.80188E-04    0.52090E-03
     130   -0.6993868731E+02   -0.56403E-04    0.82142E-03
     140   -0.6993930795E+02   -0.38518E-04    0.61281E-03
     150   -0.6993946088E+02   -0.90813E-05    0.51651E-04
     160   -0.6993953526E+02   -0.11851E-04    0.48962E-04
     -  10 steepest descent iterations performed
     170   -0.6993959249E+02   -0.44983E-05    0.57987E-05
     180   -0.6993965581E+02   -0.65872E-05    0.55026E-04
     -  10 steepest descent iterations performed
     190   -0.6993969444E+02   -0.38010E-05    0.36624E-05
     200   -0.6993973501E+02   -0.51613E-05    0.39145E-04
     -  10 steepest descent iterations performed
     210   -0.6993977068E+02   -0.30506E-05    0.34504E-05
     220   -0.6993981020E+02   -0.44346E-05    0.37753E-04
     -  10 steepest descent iterations performed
     230   -0.6993984736E+02   -0.38421E-05    0.36109E-05
     240   -0.6993988451E+02   -0.45041E-05    0.34052E-04
     -  10 steepest descent iterations performed
     250   -0.6993992050E+02   -0.31385E-05    0.35441E-05
     260   -0.6993995853E+02   -0.41277E-05    0.35265E-04
     -  10 steepest descent iterations performed
     270   -0.6993999609E+02   -0.39243E-05    0.37613E-05
     280   -0.6994003271E+02   -0.43125E-05    0.32602E-04
     -  10 steepest descent iterations performed
     290   -0.6994006919E+02   -0.31982E-05    0.37535E-05
     300   -0.6994010697E+02   -0.39891E-05    0.34581E-04
     -  10 steepest descent iterations performed
     310   -0.6994014480E+02   -0.39805E-05    0.39287E-05
     320   -0.6994018120E+02   -0.41951E-05    0.31951E-04
     -  10 steepest descent iterations performed
     330   -0.6994021769E+02   -0.32156E-05    0.38916E-05
     340   -0.6994025505E+02   -0.38595E-05    0.33918E-04
     -  10 steepest descent iterations performed
     350   -0.6994029248E+02   -0.39636E-05    0.39933E-05
     -  10 steepest descent iterations performed
     360   -0.6994031104E+02   -0.20807E-05    0.40470E-05
     370   -0.6994108149E+02   -0.17807E-04    0.18508E-01
     -  10 steepest descent iterations performed
     380   -0.6994118942E+02   -0.76583E-05    0.68289E-05
     390   -0.6994121559E+02   -0.22945E-05    0.77488E-05
     400   -0.6994122706E+02   -0.49981E-06    0.48383E-05
     410   -0.6994123933E+02   -0.11837E-05    0.21957E-04
     -  10 steepest descent iterations performed
     420   -0.6994124393E+02   -0.30519E-06    0.24165E-06
     430   -0.6994124884E+02   -0.79890E-06    0.68115E-05
     -  10 steepest descent iterations performed
     440   -0.6994125174E+02   -0.19176E-06    0.21321E-06
     450   -0.6994125435E+02   -0.27784E-06    0.25345E-05
     -  10 steepest descent iterations performed
     460   -0.6994125664E+02   -0.22495E-06    0.24423E-06
     470   -0.6994125897E+02   -0.29405E-06    0.24704E-05
     -  10 steepest descent iterations performed
     480   -0.6994126113E+02   -0.17477E-06    0.21221E-06
     490   -0.6994126310E+02   -0.17859E-06    0.17475E-05
     -  10 steepest descent iterations performed
     500   -0.6994126497E+02   -0.19264E-06    0.24029E-06
     -  10 steepest descent iterations performed
     510   -0.6994126507E+02   -0.78269E-07    0.55667E-10
  *** tolerance ok. iteration terminated
     >>>  ITERATION ENDED   AT Fri Apr 21 14:49:16 2023  <<<


==  Summary Of Results  ==

 number of electrons: spin up=    7.00000  down=    7.00000 (real space)

 total     energy    :  -0.6994126507E+02 (   -0.69941E+02/ion)
 total orbital energy:  -0.1220761928E+02 (   -0.17439E+01/electron)
 hartree   energy    :   0.3397859700E+02 (    0.48541E+01/electron)
 exc-corr  energy    :  -0.2220480776E+02 (   -0.31721E+01/electron)
 ion-ion   energy    :  -0.1069442896E+02 (   -0.10694E+02/ion)

 kinetic (planewave) :   0.1383522674E+02 (    0.19765E+01/electron)
 V_local (planewave) :  -0.8596190822E+02 (   -0.12280E+02/electron)
 V_nl    (planewave) :   0.1106056125E+01 (    0.15801E+00/electron)
 V_Coul  (planewave) :   0.6795719401E+02 (    0.97082E+01/electron)
 V_xc.   (planewave) :  -0.9144187928E+01 (   -0.13063E+01/electron)
 Virial Coefficient  :  -0.1882357731E+01

 orbital energies:
    -0.1904158E+00 (  -5.182eV)
    -0.1977958E+00 (  -5.382eV)
    -0.1982637E+00 (  -5.395eV)
    -0.1175585E+01 ( -31.990eV)
    -0.1184864E+01 ( -32.242eV)
    -0.1184977E+01 ( -32.245eV)
    -0.1971908E+01 ( -53.659eV)

 Total PSPW energy     :  -0.6994126507E+02


=== Spin Contamination ===

 <Sexact^2> =    0.0000000000000000     
 <S^2>      =    0.0000000000000000     



== Center of Charge ==

spin up     (    0.0000,    0.0000,   -0.0000 )
spin down   (    0.0000,    0.0000,   -0.0000 )
     total  (    0.0000,    0.0000,   -0.0000 )
ionic       (    0.0000,    0.0000,    0.0000 )


== Molecular Dipole wrt Center of Mass ==

mu   =  (   -0.0006,   -0.0000,    0.0007 ) au
|mu| =     0.0009 au,       0.0022 Debye

 output psi filename:./perm/pspw-pbe-Nd1.movecs

 Writing Crystallographic Information File:./perm/Nd1.cif
   - cell not shifted (nwpw:cif_shift_cell .false.)


== Timing ==

cputime in seconds
  prologue    :   0.180147E+01
  main loop   :   0.355921E+02
  epilogue    :   0.364360E-01
  total       :   0.374300E+02
  cputime/step:   0.260557E-01       (    1366 evalulations,     501 linesearches)


Time spent doing                        total          step       percent
  total time                 :   0.374323E+02  0.274029E-01       100.0 %
  i/o time                   :   0.176861E+01  0.129473E-02         4.7 %
  FFTs                       :   0.106371E+02  0.778702E-02        28.4 %
  dot products               :   0.978301E+00  0.716179E-03         2.6 %
  geodesic                   :   0.137027E+01  0.100313E-02         3.7 %
  ffm_dgemm                  :   0.215823E+00  0.157997E-03         0.6 %
  fmf_dgemm                  :   0.954617E+00  0.698841E-03         2.6 %
  mmm_dgemm                  :   0.990881E-02  0.725389E-05         0.0 %
  m_diagonalize              :   0.100915E-01  0.738764E-05         0.0 %
  exchange correlation       :   0.148541E+02  0.108741E-01        39.7 %
  local pseudopotentials     :   0.121000E-03  0.885798E-07         0.0 %
  non-local pseudopotentials :   0.131246E+01  0.960808E-03         3.5 %
  hartree potentials         :   0.926200E-01  0.678038E-04         0.2 %
  ion-ion interaction        :   0.726500E-02  0.531845E-05         0.0 %
  structure factors          :   0.237368E-01  0.173768E-04         0.1 %
  phase factors              :   0.199900E-05  0.146340E-08         0.0 %
  masking and packing        :   0.176183E+01  0.128977E-02         4.7 %
  queue fft                  :   0.129392E+02  0.947230E-02        34.6 %
  queue fft (serial)         :   0.732084E+01  0.535932E-02        19.6 %
  queue fft (message passing):   0.542592E+01  0.397212E-02        14.5 %
  non-local psp FFM          :   0.605683E+00  0.443399E-03         1.6 %
  non-local psp FMF          :   0.550906E+00  0.403299E-03         1.5 %
  non-local psp FFM A        :   0.213390E+00  0.156215E-03         0.6 %
  non-local psp FFM B        :   0.328600E+00  0.240556E-03         0.9 %

     >>>  JOB COMPLETED     AT Fri Apr 21 14:49:16 2023  <<<
          ****************************************************
          *                                                  *
          *               NWPW PSPW Calculation              *
          *                                                  *
          * [ (Grassmann/Stiefel manifold implementation)  ] *
          *                                                  *
          *      [ NorthWest Chemistry implementation ]      *
          *                                                  *
          *            version #5.10   06/12/02              *
          *                                                  *
          *    This code was developed by Eric J. Bylaska,   *
          *    and was based upon algorithms and code        *
          *    developed by the group of Prof. John H. Weare *
          *                                                  *
          ****************************************************
     >>>  JOB STARTED       AT Fri Apr 21 14:49:16 2023  <<<
          ================ input data ========================
 pseudopotential is not correctly formatted:Nd.vpp                                            

 Generated formatted_filename: ./perm/Nd.vpp
 - filtering pseudopotential -
 Error reading psi - bad grid
 nfft :                   70                   70                   70
 ngrid:                  100                  100                  100
 Error reading psi - bad grid
 nfft :                   70                   70                   70
 ngrid:                  100                  100                  100
 Error reading psi - bad grid

 Grid is being converted:
 ------------------------

 To turn off automatic grid conversion:

 set nwpw:psi_nogrid .false.

 old_filename: pspw-pbe-Nd1.movecs                               
 new_filename: pspw-pbe-Nd1.movecs                               
 converting  :  70x 70x 70 --> 100x100x100
converting .... psi:    1 spin: 1
converting .... psi:    2 spin: 1
converting .... psi:    3 spin: 1
converting .... psi:    4 spin: 1
converting .... psi:    5 spin: 1
converting .... psi:    6 spin: 1
converting .... psi:    7 spin: 1

 input psi filename:./perm/pspw-pbe-Nd1.movecs

 number of processors used:         6
 processor grid           :   6 x   1
 parallel mapping         : 2d-hcurve
 parallel mapping         :  balanced
 number of threads        :         1
 parallel io              :       off

 options:
      boundary conditions  = periodic    (version3)
      electron spin        = restricted
      exchange-correlation = PBE96 (White and Bird) parameterization

 elements involved in the cluster:
      1: Nd  valence charge: 14.0000  lmax=  3
             comment    : Parameterized Nd TM psp (4f5s5p5d6s6p projectors, 4/2/2022 by EJB)
             pseudpotential type            :   0
             highest angular component      :   3
             local potential used           :   0
             number of non-local projections:  25
             semicore corrections included  :  0.900 (radius) 13.059 (charge)
             cutoff =   1.618   1.828   2.213   1.403


 total charge:   0.000

 atomic composition:
     Nd  :    1

 number of electrons: spin up=     7 (   7 per task)  down=     7 (   7 per task) (Fourier space)
 number of orbitals : spin up=     7 (   7 per task)  down=     7 (   7 per task) (Fourier space)

 supercell:
      cell_name:  cell_default                                      
      lattice:    a1=<  26.000   0.000   0.000 >
                  a2=<   0.000  26.000   0.000 >
                  a3=<   0.000   0.000  26.000 >
      reciprocal: b1=<   0.242   0.000   0.000 >
                  b2=<   0.000   0.242   0.000 >
                  b3=<   0.000   0.000   0.242 >
      lattice:    a=      26.000 b=     26.000 c=      26.000
                  alpha=  90.000 beta=  90.000 gamma=  90.000
                  omega=     17576.0

      density cutoff= 70.000  fft=100x100x100(   245909 waves    40984 per task)
      wavefnc cutoff= 35.000  fft=100x100x100(    86963 waves    14493 per task)
      Ewald summation: cut radius=    8.28  and  1
                       Madelung Wigner-Seitz=    1.76011888 (alpha=    2.83729748 rs=16.12911276)

 technical parameters:
      time step=      1.00     fictitious mass=  400000.0
      tolerance=0.100E-06 (energy)   0.100E-06 (density)
      maximum iterations =      1000 (   10 inner    100 outer )





== Energy Calculation ==


          ============ Grassmann lmbfgs iteration ============
     >>>  ITERATION STARTED AT Fri Apr 21 14:49:20 2023  <<<
    iter.           Energy         DeltaE       DeltaRho 
    ------------------------------------------------------
      10   -0.6991682110E+02   -0.26302E-04    0.66484E-03
      20   -0.6991695721E+02   -0.13966E-04    0.80840E-05
      30   -0.6991714325E+02   -0.32091E-04    0.50751E-04
     -  10 steepest descent iterations performed
      40   -0.6991730155E+02   -0.13750E-04    0.12851E-04
      50   -0.6991755873E+02   -0.90658E-04    0.86323E-04
     -  10 steepest descent iterations performed
      60   -0.6996908441E+02   -0.26050E-01    0.12191E+00
     -  10 steepest descent iterations performed
      70   -0.7014815661E+02   -0.75358E-02    0.20569E-01
      80   -0.7017965721E+02   -0.87584E-03    0.18631E-01
      90   -0.7019068119E+02   -0.15197E-02    0.10657E-01
     -  10 steepest descent iterations performed
     100   -0.7019855858E+02   -0.96751E-03    0.14953E-02
     110   -0.7021211397E+02   -0.14066E-02    0.27799E-01
     -  10 steepest descent iterations performed
     120   -0.7022080649E+02   -0.49826E-03    0.14212E-02
     130   -0.7022448522E+02   -0.32041E-03    0.27831E-02
     140   -0.7022910683E+02   -0.38053E-03    0.10394E-01
     -  10 steepest descent iterations performed
     150   -0.7023171580E+02   -0.31380E-03    0.11225E-02
     160   -0.7023360866E+02   -0.27389E-03    0.24642E-02
     170   -0.7023611908E+02   -0.15830E-03    0.75847E-02
     180   -0.7023774887E+02   -0.70521E-04    0.40814E-02
     190   -0.7023905065E+02   -0.12337E-03    0.43359E-02
     -  10 steepest descent iterations performed
     200   -0.7024032958E+02   -0.92439E-04    0.39283E-03
     210   -0.7024128302E+02   -0.11185E-03    0.12516E-02
     -  10 steepest descent iterations performed
     220   -0.7024174778E+02   -0.38593E-04    0.12077E-03
     230   -0.7024219088E+02   -0.32269E-04    0.63715E-03
     240   -0.7024300887E+02   -0.74700E-04    0.46540E-02
     -  10 steepest descent iterations performed
     250   -0.7024335271E+02   -0.26430E-04    0.76971E-04
     260   -0.7024348266E+02   -0.92183E-05    0.78178E-04
     270   -0.7024362901E+02   -0.17897E-04    0.47909E-03
     -  10 steepest descent iterations performed
     280   -0.7024373647E+02   -0.80688E-05    0.19005E-04
     290   -0.7024381958E+02   -0.73660E-05    0.14213E-03
     300   -0.7024398132E+02   -0.19048E-04    0.11073E-02
     -  10 steepest descent iterations performed
     310   -0.7024410415E+02   -0.92378E-05    0.26088E-04
     320   -0.7024415837E+02   -0.42786E-05    0.42155E-04
     330   -0.7024421881E+02   -0.77154E-05    0.21473E-03
     -  10 steepest descent iterations performed
     340   -0.7024427005E+02   -0.37390E-05    0.94888E-05
     350   -0.7024431402E+02   -0.41438E-05    0.89338E-04
     -  10 steepest descent iterations performed
     360   -0.7024434389E+02   -0.31460E-05    0.10770E-04
     370   -0.7024439001E+02   -0.44933E-05    0.14728E-03
     -  10 steepest descent iterations performed
     380   -0.7024442962E+02   -0.44942E-05    0.15022E-04
     -  10 steepest descent iterations performed
     390   -0.7024444690E+02   -0.17002E-05    0.91838E-05
     400   -0.7024467275E+02   -0.19373E-04    0.63103E-02
     -  10 steepest descent iterations performed
     410   -0.7024483562E+02   -0.54589E-05    0.18778E-04
     420   -0.7024485925E+02   -0.21097E-05    0.13495E-04
     430   -0.7024488725E+02   -0.34489E-05    0.89390E-04
     -  10 steepest descent iterations performed
     440   -0.7024491120E+02   -0.33604E-05    0.77271E-05
     450   -0.7024493279E+02   -0.15610E-05    0.39568E-04
     460   -0.7024501743E+02   -0.76155E-05    0.13394E-02
     -  10 steepest descent iterations performed
     470   -0.7024508528E+02   -0.24422E-05    0.73005E-05
     480   -0.7024510247E+02   -0.16766E-05    0.13453E-04
     490   -0.7024511693E+02   -0.17332E-05    0.36861E-04
     -  10 steepest descent iterations performed
     500   -0.7024512977E+02   -0.18390E-05    0.49016E-05
     -  10 steepest descent iterations performed
     510   -0.7024513649E+02   -0.67608E-06    0.35612E-05
     520   -0.7024518570E+02   -0.44434E-05    0.76878E-03
     -  10 steepest descent iterations performed
     530   -0.7024521605E+02   -0.13219E-05    0.47323E-05
     540   -0.7024522685E+02   -0.76194E-06    0.89399E-05
     550   -0.7024523501E+02   -0.13196E-05    0.23299E-04
     -  10 steepest descent iterations performed
     560   -0.7024524215E+02   -0.12154E-05    0.28323E-05
     570   -0.7024525135E+02   -0.78322E-06    0.32377E-04
     580   -0.7024527169E+02   -0.15495E-05    0.25099E-03
     -  10 steepest descent iterations performed
     590   -0.7024528898E+02   -0.81905E-06    0.37715E-05
     600   -0.7024529712E+02   -0.65296E-06    0.83139E-05
     610   -0.7024530312E+02   -0.90563E-06    0.17429E-04
     -  10 steepest descent iterations performed
     620   -0.7024530867E+02   -0.93914E-06    0.24337E-05
     -  10 steepest descent iterations performed
     630   -0.7024531178E+02   -0.33283E-06    0.19872E-05
     640   -0.7024533260E+02   -0.26352E-05    0.32610E-03
     -  10 steepest descent iterations performed
     650   -0.7024534788E+02   -0.64613E-06    0.30777E-05
     660   -0.7024535498E+02   -0.72775E-06    0.92541E-05
     -  10 steepest descent iterations performed
     670   -0.7024535825E+02   -0.25041E-06    0.13856E-05
     680   -0.7024537100E+02   -0.20296E-05    0.12229E-03
     -  10 steepest descent iterations performed
     690   -0.7024538216E+02   -0.49360E-06    0.16308E-05
     700   -0.7024538678E+02   -0.54956E-06    0.53595E-05
     -  10 steepest descent iterations performed
     710   -0.7024538995E+02   -0.28515E-06    0.15725E-05
     720   -0.7024540216E+02   -0.17854E-05    0.11079E-03
     -  10 steepest descent iterations performed
     730   -0.7024541302E+02   -0.56007E-06    0.18741E-05
     740   -0.7024541773E+02   -0.51064E-06    0.50593E-05
     750   -0.7024542823E+02   -0.18162E-05    0.75596E-04
     -  10 steepest descent iterations performed
     760   -0.7024543882E+02   -0.15886E-05    0.19353E-05
     770   -0.7024544389E+02   -0.48161E-06    0.61458E-05
     780   -0.7024545496E+02   -0.13157E-05    0.82347E-04
     -  10 steepest descent iterations performed
     790   -0.7024546638E+02   -0.54391E-06    0.19367E-05
     800   -0.7024547206E+02   -0.74796E-06    0.65533E-05
     -  10 steepest descent iterations performed
     810   -0.7024547592E+02   -0.43323E-06    0.20733E-05
     820   -0.7024548952E+02   -0.13856E-05    0.10571E-03
     -  10 steepest descent iterations performed
     830   -0.7024550153E+02   -0.65977E-06    0.23125E-05
     840   -0.7024550761E+02   -0.66815E-06    0.62316E-05
     -  10 steepest descent iterations performed
     850   -0.7024551177E+02   -0.51565E-06    0.24972E-05
     860   -0.7024552596E+02   -0.12097E-05    0.10334E-03
     -  10 steepest descent iterations performed
     870   -0.7024553851E+02   -0.75177E-06    0.26475E-05
     880   -0.7024554481E+02   -0.62340E-06    0.60552E-05
     890   -0.7024556746E+02   -0.85711E-05    0.28811E-03
     -  10 steepest descent iterations performed
     900   -0.7024558975E+02   -0.17567E-05    0.17506E-05
     910   -0.7024559725E+02   -0.77664E-06    0.82956E-05
     920   -0.7024561013E+02   -0.98087E-06    0.71491E-04
     -  10 steepest descent iterations performed
     930   -0.7024562324E+02   -0.67430E-06    0.29933E-05
     940   -0.7024563087E+02   -0.96762E-06    0.91842E-05
     -  10 steepest descent iterations performed
     950   -0.7024563627E+02   -0.79004E-06    0.32879E-05
     960   -0.7024565102E+02   -0.87872E-06    0.79535E-04
     -  10 steepest descent iterations performed
     970   -0.7024566417E+02   -0.10856E-05    0.39884E-05
     -  10 steepest descent iterations performed
     980   -0.7024566887E+02   -0.34578E-06    0.15973E-05
     990   -0.7024570577E+02   -0.12442E-04    0.65021E-03
     -  10 steepest descent iterations performed
    1000   -0.7024573983E+02   -0.36306E-05    0.22599E-05
 *** arrived at the Maximum iteration.  terminated
     >>>  ITERATION ENDED   AT Fri Apr 21 14:52:12 2023  <<<


==  Summary Of Results  ==

 number of electrons: spin up=    7.00000  down=    7.00000 (real space)

 total     energy    :  -0.7024573983E+02 (   -0.70246E+02/ion)
 total orbital energy:  -0.1035566328E+02 (   -0.14794E+01/electron)
 hartree   energy    :   0.3611980710E+02 (    0.51600E+01/electron)
 exc-corr  energy    :  -0.2299271524E+02 (   -0.32847E+01/electron)
 ion-ion   energy    :  -0.1069442896E+02 (   -0.10694E+02/ion)

 kinetic (planewave) :   0.2866769221E+02 (    0.40954E+01/electron)
 V_local (planewave) :  -0.8756625145E+02 (   -0.12509E+02/electron)
 V_nl    (planewave) :  -0.1377984350E+02 (   -0.19685E+01/electron)
 V_Coul  (planewave) :   0.7223961420E+02 (    0.10320E+02/electron)
 V_xc.   (planewave) :  -0.9916874753E+01 (   -0.14167E+01/electron)
 Virial Coefficient  :  -0.1361231145E+01

 orbital energies:
    -0.1356825E+00 (  -3.692eV)
    -0.1372371E+00 (  -3.734eV)
    -0.1663342E+00 (  -4.526eV)
    -0.9977340E+00 ( -27.150eV)
    -0.9982271E+00 ( -27.163eV)
    -0.1001908E+01 ( -27.264eV)
    -0.1740709E+01 ( -47.367eV)

 Total PSPW energy     :  -0.7024573983E+02


=== Spin Contamination ===

 <Sexact^2> =    0.0000000000000000     
 <S^2>      =    0.0000000000000000     



== Center of Charge ==

spin up     (   -0.0004,    0.0005,    0.0002 )
spin down   (   -0.0004,    0.0005,    0.0002 )
     total  (   -0.0004,    0.0005,    0.0002 )
ionic       (    0.0000,    0.0000,    0.0000 )


== Molecular Dipole wrt Center of Mass ==

mu   =  (    0.0055,   -0.0070,   -0.0027 ) au
|mu| =     0.0093 au,       0.0237 Debye

 output psi filename:./perm/pspw-pbe-Nd1.movecs

 Writing Crystallographic Information File:./perm/Nd1.cif
   - cell not shifted (nwpw:cif_shift_cell .false.)


== Timing ==

cputime in seconds
  prologue    :   0.382882E+01
  main loop   :   0.171998E+03
  epilogue    :   0.890630E-01
  total       :   0.175916E+03
  cputime/step:   0.652993E-01       (    2634 evalulations,    1000 linesearches)


Time spent doing                        total          step       percent
  total time                 :   0.175919E+03  0.667876E-01       100.0 %
  i/o time                   :   0.372887E+01  0.141567E-02         2.1 %
  FFTs                       :   0.468240E+02  0.177768E-01        26.6 %
  dot products               :   0.523528E+01  0.198758E-02         3.0 %
  geodesic                   :   0.708617E+01  0.269027E-02         4.0 %
  ffm_dgemm                  :   0.108192E+01  0.410752E-03         0.6 %
  fmf_dgemm                  :   0.538441E+01  0.204419E-02         3.1 %
  mmm_dgemm                  :   0.254319E-01  0.965526E-05         0.0 %
  m_diagonalize              :   0.203280E-01  0.771756E-05         0.0 %
  exchange correlation       :   0.742589E+02  0.281925E-01        42.2 %
  local pseudopotentials     :   0.302000E-03  0.114655E-06         0.0 %
  non-local pseudopotentials :   0.696671E+01  0.264492E-02         4.0 %
  hartree potentials         :   0.548420E+00  0.208208E-03         0.3 %
  ion-ion interaction        :   0.419270E-01  0.159176E-04         0.0 %
  structure factors          :   0.131850E+00  0.500568E-04         0.1 %
  phase factors              :   0.299900E-05  0.113857E-08         0.0 %
  masking and packing        :   0.874870E+01  0.332145E-02         5.0 %
  queue fft                  :   0.573479E+02  0.217722E-01        32.6 %
  queue fft (serial)         :   0.239893E+02  0.910756E-02        13.6 %
  queue fft (message passing):   0.318170E+02  0.120794E-01        18.1 %
  non-local psp FFM          :   0.343772E+01  0.130513E-02         2.0 %
  non-local psp FMF          :   0.219601E+01  0.833716E-03         1.2 %
  non-local psp FFM A        :   0.115467E+01  0.438372E-03         0.7 %
  non-local psp FFM B        :   0.199321E+01  0.756723E-03         1.1 %

     >>>  JOB COMPLETED     AT Fri Apr 21 14:52:12 2023  <<<
          ****************************************************
          *                                                  *
          *               NWPW PSPW Calculation              *
          *                                                  *
          * [ (Grassmann/Stiefel manifold implementation)  ] *
          *                                                  *
          *      [ NorthWest Chemistry implementation ]      *
          *                                                  *
          *            version #5.10   06/12/02              *
          *                                                  *
          *    This code was developed by Eric J. Bylaska,   *
          *    and was based upon algorithms and code        *
          *    developed by the group of Prof. John H. Weare *
          *                                                  *
          ****************************************************
     >>>  JOB STARTED       AT Fri Apr 21 14:52:12 2023  <<<
          ================ input data ========================
 pseudopotential is not correctly formatted:Nd.vpp                                            

 Generated formatted_filename: ./perm/Nd.vpp
 - filtering pseudopotential -
 Error reading psi - bad grid
 nfft :                  100                  100                  100
 ngrid:                  126                  126                  126
 Error reading psi - bad grid
 nfft :                  100                  100                  100
 ngrid:                  126                  126                  126
 Error reading psi - bad grid

 Grid is being converted:
 ------------------------

 To turn off automatic grid conversion:

 set nwpw:psi_nogrid .false.

 old_filename: pspw-pbe-Nd1.movecs                               
 new_filename: pspw-pbe-Nd1.movecs                               
 converting  : 100x100x100 --> 126x126x126
converting .... psi:    1 spin: 1
converting .... psi:    2 spin: 1
converting .... psi:    3 spin: 1
converting .... psi:    4 spin: 1
converting .... psi:    5 spin: 1
converting .... psi:    6 spin: 1
converting .... psi:    7 spin: 1

 input psi filename:./perm/pspw-pbe-Nd1.movecs

 number of processors used:         6
 processor grid           :   6 x   1
 parallel mapping         : 2d-hcurve
 parallel mapping         :  balanced
 number of threads        :         1
 parallel io              :       off

 options:
      boundary conditions  = periodic    (version3)
      electron spin        = restricted
      exchange-correlation = PBE96 (White and Bird) parameterization

 elements involved in the cluster:
      1: Nd  valence charge: 14.0000  lmax=  3
             comment    : Parameterized Nd TM psp (4f5s5p5d6s6p projectors, 4/2/2022 by EJB)
             pseudpotential type            :   0
             highest angular component      :   3
             local potential used           :   0
             number of non-local projections:  25
             semicore corrections included  :  0.900 (radius) 13.060 (charge)
             cutoff =   1.618   1.828   2.213   1.403


 total charge:   0.000

 atomic composition:
     Nd  :    1

 number of electrons: spin up=     7 (   7 per task)  down=     7 (   7 per task) (Fourier space)
 number of orbitals : spin up=     7 (   7 per task)  down=     7 (   7 per task) (Fourier space)

 supercell:
      cell_name:  cell_default                                      
      lattice:    a1=<  26.000   0.000   0.000 >
                  a2=<   0.000  26.000   0.000 >
                  a3=<   0.000   0.000  26.000 >
      reciprocal: b1=<   0.242   0.000   0.000 >
                  b2=<   0.000   0.242   0.000 >
                  b3=<   0.000   0.000   0.242 >
      lattice:    a=      26.000 b=     26.000 c=      26.000
                  alpha=  90.000 beta=  90.000 gamma=  90.000
                  omega=     17576.0

      density cutoff=105.000  fft=126x126x126(   451466 waves    75246 per task)
      wavefnc cutoff= 52.500  fft=126x126x126(   159625 waves    26604 per task)
      Ewald summation: cut radius=    8.28  and  1
                       Madelung Wigner-Seitz=    1.76011888 (alpha=    2.83729748 rs=16.12911276)

 technical parameters:
      time step=      1.00     fictitious mass=  400000.0
      tolerance=0.100E-06 (energy)   0.100E-06 (density)
      maximum iterations =      1000 (   10 inner    100 outer )





== Energy Calculation ==


          ============ Grassmann lmbfgs iteration ============
     >>>  ITERATION STARTED AT Fri Apr 21 14:52:21 2023  <<<
    iter.           Energy         DeltaE       DeltaRho 
    ------------------------------------------------------
      10   -0.7099606454E+02   -0.10479E-01    0.21304E+00
     -  10 steepest descent iterations performed
      20   -0.7103607289E+02   -0.39538E-02    0.49886E-02
      30   -0.7104673053E+02   -0.26834E-03    0.47632E-02
      40   -0.7104863401E+02   -0.11917E-03    0.10094E-02
      50   -0.7104957332E+02   -0.86243E-04    0.16862E-02
      60   -0.7105013473E+02   -0.35889E-04    0.15941E-02
      70   -0.7105042893E+02   -0.19169E-04    0.10411E-02
      80   -0.7105058306E+02   -0.12099E-04    0.51622E-03
      90   -0.7105065926E+02   -0.67666E-05    0.18126E-03
     100   -0.7105071156E+02   -0.45918E-05    0.12107E-03
     110   -0.7105075916E+02   -0.50620E-05    0.14443E-03
     -  10 steepest descent iterations performed
     120   -0.7105078541E+02   -0.31356E-05    0.90064E-05
     130   -0.7105081920E+02   -0.40430E-05    0.90007E-04
     -  10 steepest descent iterations performed
     140   -0.7105083692E+02   -0.16528E-05    0.35719E-05
     150   -0.7105085243E+02   -0.17401E-05    0.30710E-04
     -  10 steepest descent iterations performed
     160   -0.7105086570E+02   -0.14103E-05    0.40047E-05
     170   -0.7105088085E+02   -0.17174E-05    0.41214E-04
     -  10 steepest descent iterations performed
     180   -0.7105089470E+02   -0.12698E-05    0.30354E-05
     190   -0.7105090648E+02   -0.11968E-05    0.23316E-04
     200   -0.7105099822E+02   -0.95433E-05    0.26867E-02
     -  10 steepest descent iterations performed
     210   -0.7105105157E+02   -0.38166E-05    0.19899E-05
     220   -0.7105106020E+02   -0.68493E-06    0.24784E-05
     230   -0.7105106545E+02   -0.57608E-06    0.79546E-05
     240   -0.7105110447E+02   -0.58090E-05    0.97809E-03
     -  10 steepest descent iterations performed
     250   -0.7105112303E+02   -0.14302E-05    0.12443E-05
     260   -0.7105112969E+02   -0.52990E-06    0.26960E-05
     270   -0.7105113486E+02   -0.40969E-06    0.74727E-05
     280   -0.7105114168E+02   -0.85231E-06    0.30473E-04
     -  10 steepest descent iterations performed
     290   -0.7105114556E+02   -0.40812E-06    0.93000E-06
     300   -0.7105114920E+02   -0.35142E-06    0.52105E-05
     310   -0.7105115454E+02   -0.54292E-06    0.23819E-04
     -  10 steepest descent iterations performed
     320   -0.7105115785E+02   -0.35780E-06    0.57932E-06
     330   -0.7105116146E+02   -0.32033E-06    0.48876E-05
     340   -0.7105116448E+02   -0.31452E-06    0.82088E-05
     350   -0.7105117474E+02   -0.10519E-05    0.14359E-03
     -  10 steepest descent iterations performed
     360   -0.7105118108E+02   -0.73680E-06    0.58817E-06
     370   -0.7105118496E+02   -0.35003E-06    0.25100E-05
     380   -0.7105118723E+02   -0.17452E-06    0.20426E-05
     390   -0.7105118917E+02   -0.24987E-06    0.44940E-05
     -  10 steepest descent iterations performed
     400   -0.7105119071E+02   -0.13447E-06    0.18394E-06
     410   -0.7105119286E+02   -0.22589E-06    0.35664E-05
     -  10 steepest descent iterations performed
     420   -0.7105119416E+02   -0.11887E-06    0.16499E-06
     430   -0.7105119532E+02   -0.14906E-06    0.14028E-05
     -  10 steepest descent iterations performed
     440   -0.7105119548E+02   -0.85306E-07    0.10912E-09
  *** tolerance ok. iteration terminated
     >>>  ITERATION ENDED   AT Fri Apr 21 14:55:12 2023  <<<


==  Summary Of Results  ==

 number of electrons: spin up=    7.00000  down=    7.00000 (real space)

 total     energy    :  -0.7105119548E+02 (   -0.71051E+02/ion)
 total orbital energy:  -0.8878863638E+01 (   -0.12684E+01/electron)
 hartree   energy    :   0.3839833751E+02 (    0.54855E+01/electron)
 exc-corr  energy    :  -0.2379620174E+02 (   -0.33995E+01/electron)
 ion-ion   energy    :  -0.1069442896E+02 (   -0.10694E+02/ion)

 kinetic (planewave) :   0.4251950925E+02 (    0.60742E+01/electron)
 V_local (planewave) :  -0.8791760233E+02 (   -0.12560E+02/electron)
 V_nl    (planewave) :  -0.2956080922E+02 (   -0.42230E+01/electron)
 V_Coul  (planewave) :   0.7679667502E+02 (    0.10971E+02/electron)
 V_xc.   (planewave) :  -0.1071663637E+02 (   -0.15309E+01/electron)
 Virial Coefficient  :  -0.1208818582E+01

 orbital energies:
    -0.8734623E-01 (  -2.377eV)
    -0.9256100E-01 (  -2.519eV)
    -0.1481726E+00 (  -4.032eV)
    -0.8515851E+00 ( -23.173eV)
    -0.8539333E+00 ( -23.237eV)
    -0.8583682E+00 ( -23.358eV)
    -0.1547465E+01 ( -42.109eV)

 Total PSPW energy     :  -0.7105119548E+02


=== Spin Contamination ===

 <Sexact^2> =    0.0000000000000000     
 <S^2>      =    0.0000000000000000     



== Center of Charge ==

spin up     (   -0.0008,    0.0011,    0.0009 )
spin down   (   -0.0008,    0.0011,    0.0009 )
     total  (   -0.0008,    0.0011,    0.0009 )
ionic       (    0.0000,    0.0000,    0.0000 )


== Molecular Dipole wrt Center of Mass ==

mu   =  (    0.0118,   -0.0153,   -0.0132 ) au
|mu| =     0.0234 au,       0.0596 Debye

 output psi filename:./perm/pspw-pbe-Nd1.movecs

 Writing Crystallographic Information File:./perm/Nd1.cif
   - cell not shifted (nwpw:cif_shift_cell .false.)


== Timing ==

cputime in seconds
  prologue    :   0.930302E+01
  main loop   :   0.171334E+03
  epilogue    :   0.155110E+00
  total       :   0.180792E+03
  cputime/step:   0.156899E+00       (    1092 evalulations,     431 linesearches)


Time spent doing                        total          step       percent
  total time                 :   0.180795E+03  0.165563E+00       100.0 %
  i/o time                   :   0.907222E+01  0.830790E-02         5.0 %
  FFTs                       :   0.511779E+02  0.468662E-01        28.3 %
  dot products               :   0.426064E+01  0.390169E-02         2.4 %
  geodesic                   :   0.585319E+01  0.536007E-02         3.2 %
  ffm_dgemm                  :   0.774629E+00  0.709367E-03         0.4 %
  fmf_dgemm                  :   0.436471E+01  0.399699E-02         2.4 %
  mmm_dgemm                  :   0.116014E-01  0.106240E-04         0.0 %
  m_diagonalize              :   0.884459E-02  0.809944E-05         0.0 %
  exchange correlation       :   0.724683E+02  0.663629E-01        40.1 %
  local pseudopotentials     :   0.380000E-03  0.347985E-06         0.0 %
  non-local pseudopotentials :   0.602709E+01  0.551931E-02         3.3 %
  hartree potentials         :   0.438168E+00  0.401253E-03         0.2 %
  ion-ion interaction        :   0.324730E-01  0.297372E-04         0.0 %
  structure factors          :   0.952040E-01  0.871831E-04         0.1 %
  phase factors              :   0.399900E-05  0.366209E-08         0.0 %
  masking and packing        :   0.760325E+01  0.696268E-02         4.2 %
  queue fft                  :   0.612944E+02  0.561304E-01        33.9 %
  queue fft (serial)         :   0.306126E+02  0.280335E-01        16.9 %
  queue fft (message passing):   0.294543E+02  0.269728E-01        16.3 %
  non-local psp FFM          :   0.268922E+01  0.246265E-02         1.5 %
  non-local psp FMF          :   0.234413E+01  0.214664E-02         1.3 %
  non-local psp FFM A        :   0.864966E+00  0.792093E-03         0.5 %
  non-local psp FFM B        :   0.166647E+01  0.152607E-02         0.9 %

     >>>  JOB COMPLETED     AT Fri Apr 21 14:55:13 2023  <<<
          ****************************************************
          *                                                  *
          *               NWPW PSPW Calculation              *
          *                                                  *
          * [ (Grassmann/Stiefel manifold implementation)  ] *
          *                                                  *
          *      [ NorthWest Chemistry implementation ]      *
          *                                                  *
          *            version #5.10   06/12/02              *
          *                                                  *
          *    This code was developed by Eric J. Bylaska,   *
          *    and was based upon algorithms and code        *
          *    developed by the group of Prof. John H. Weare *
          *                                                  *
          ****************************************************
     >>>  JOB STARTED       AT Fri Apr 21 14:55:13 2023  <<<
          ================ input data ========================
 pseudopotential is not correctly formatted:Nd.vpp                                            

 Generated formatted_filename: ./perm/Nd.vpp
 - filtering pseudopotential -
 Error reading psi - bad grid
 nfft :                  126                  126                  126
 ngrid:                  140                  140                  140
 Error reading psi - bad grid
 nfft :                  126                  126                  126
 ngrid:                  140                  140                  140
 Error reading psi - bad grid

 Grid is being converted:
 ------------------------

 To turn off automatic grid conversion:

 set nwpw:psi_nogrid .false.

 old_filename: pspw-pbe-Nd1.movecs                               
 new_filename: pspw-pbe-Nd1.movecs                               
 converting  : 126x126x126 --> 140x140x140
converting .... psi:    1 spin: 1
converting .... psi:    2 spin: 1
converting .... psi:    3 spin: 1
converting .... psi:    4 spin: 1
converting .... psi:    5 spin: 1
converting .... psi:    6 spin: 1
converting .... psi:    7 spin: 1

 input psi filename:./perm/pspw-pbe-Nd1.movecs

 number of processors used:         6
 processor grid           :   6 x   1
 parallel mapping         : 2d-hcurve
 parallel mapping         :  balanced
 number of threads        :         1
 parallel io              :       off

 options:
      boundary conditions  = periodic    (version3)
      electron spin        = restricted
      exchange-correlation = PBE96 (White and Bird) parameterization

 elements involved in the cluster:
      1: Nd  valence charge: 14.0000  lmax=  3
             comment    : Parameterized Nd TM psp (4f5s5p5d6s6p projectors, 4/2/2022 by EJB)
             pseudpotential type            :   0
             highest angular component      :   3
             local potential used           :   0
             number of non-local projections:  25
             semicore corrections included  :  0.900 (radius) 13.060 (charge)
             cutoff =   1.618   1.828   2.213   1.403


 total charge:   0.000

 atomic composition:
     Nd  :    1

 number of electrons: spin up=     7 (   7 per task)  down=     7 (   7 per task) (Fourier space)
 number of orbitals : spin up=     7 (   7 per task)  down=     7 (   7 per task) (Fourier space)

 supercell:
      cell_name:  cell_default                                      
      lattice:    a1=<  26.000   0.000   0.000 >
                  a2=<   0.000  26.000   0.000 >
                  a3=<   0.000   0.000  26.000 >
      reciprocal: b1=<   0.242   0.000   0.000 >
                  b2=<   0.000   0.242   0.000 >
                  b3=<   0.000   0.000   0.242 >
      lattice:    a=      26.000 b=     26.000 c=      26.000
                  alpha=  90.000 beta=  90.000 gamma=  90.000
                  omega=     17576.0

      density cutoff=140.000  fft=140x140x140(   695428 waves   115908 per task)
      wavefnc cutoff= 70.000  fft=140x140x140(   245909 waves    40984 per task)
      Ewald summation: cut radius=    8.28  and  1
                       Madelung Wigner-Seitz=    1.76011888 (alpha=    2.83729748 rs=16.12911276)

 technical parameters:
      time step=      1.00     fictitious mass=  400000.0
      tolerance=0.100E-06 (energy)   0.100E-06 (density)
      maximum iterations =      1000 (   10 inner    100 outer )





== Energy Calculation ==


          ============ Grassmann lmbfgs iteration ============
     >>>  ITERATION STARTED AT Fri Apr 21 14:55:26 2023  <<<
    iter.           Energy         DeltaE       DeltaRho 
    ------------------------------------------------------
      10   -0.7137278787E+02   -0.59173E-03    0.55657E-01
      20   -0.7137587412E+02   -0.22442E-03    0.75745E-03
      30   -0.7137769525E+02   -0.13551E-03    0.53023E-03
      40   -0.7137849248E+02   -0.47307E-04    0.21555E-03
      50   -0.7137878251E+02   -0.18412E-04    0.99378E-04
      60   -0.7137890405E+02   -0.88332E-05    0.78010E-04
      70   -0.7137897490E+02   -0.61658E-05    0.10045E-03
      80   -0.7137903246E+02   -0.53754E-05    0.16671E-03
      90   -0.7137908619E+02   -0.49113E-05    0.25875E-03
     100   -0.7137912636E+02   -0.34677E-05    0.21787E-03
     110   -0.7137916275E+02   -0.37600E-05    0.27016E-03
     -  10 steepest descent iterations performed
     120   -0.7137917841E+02   -0.12546E-05    0.34143E-05
     130   -0.7137919454E+02   -0.21457E-05    0.44928E-04
     -  10 steepest descent iterations performed
     140   -0.7137920553E+02   -0.94174E-06    0.29816E-05
     150   -0.7137921537E+02   -0.10890E-05    0.25139E-04
     -  10 steepest descent iterations performed
     160   -0.7137922376E+02   -0.78701E-06    0.28362E-05
     170   -0.7137923233E+02   -0.90169E-06    0.26133E-04
     -  10 steepest descent iterations performed
     180   -0.7137924015E+02   -0.69447E-06    0.24766E-05
     190   -0.7137924709E+02   -0.71893E-06    0.19048E-04
     -  10 steepest descent iterations performed
     200   -0.7137925365E+02   -0.62342E-06    0.24018E-05
     210   -0.7137926028E+02   -0.67703E-06    0.21221E-04
     -  10 steepest descent iterations performed
     220   -0.7137926665E+02   -0.56888E-06    0.21073E-05
     230   -0.7137927227E+02   -0.57433E-06    0.15989E-04
     -  10 steepest descent iterations performed
     240   -0.7137927779E+02   -0.52349E-06    0.20588E-05
     250   -0.7137928331E+02   -0.56194E-06    0.17904E-04
     -  10 steepest descent iterations performed
     260   -0.7137928874E+02   -0.48631E-06    0.18370E-05
     270   -0.7137929357E+02   -0.49001E-06    0.13984E-04
     -  10 steepest descent iterations performed
     280   -0.7137929838E+02   -0.45605E-06    0.18075E-05
     290   -0.7137930320E+02   -0.49035E-06    0.15919E-04
     -  10 steepest descent iterations performed
     300   -0.7137930803E+02   -0.43045E-06    0.16434E-05
     310   -0.7137931230E+02   -0.43538E-06    0.12479E-04
     -  10 steepest descent iterations performed
     320   -0.7137931663E+02   -0.40964E-06    0.16246E-05
     330   -0.7137932096E+02   -0.44158E-06    0.14385E-04
     -  10 steepest descent iterations performed
     340   -0.7137932536E+02   -0.39161E-06    0.15084E-05
     350   -0.7137932926E+02   -0.39788E-06    0.11445E-04
     -  10 steepest descent iterations performed
     360   -0.7137933324E+02   -0.37740E-06    0.14987E-05
     370   -0.7137933724E+02   -0.40912E-06    0.13440E-04
     -  10 steepest descent iterations performed
     380   -0.7137934134E+02   -0.36496E-06    0.14143E-05
     390   -0.7137934498E+02   -0.37111E-06    0.10713E-04
     -  10 steepest descent iterations performed
     400   -0.7137934873E+02   -0.35517E-06    0.14154E-05
     410   -0.7137935250E+02   -0.38524E-06    0.12751E-04
     -  10 steepest descent iterations performed
     420   -0.7137935638E+02   -0.34619E-06    0.13532E-05
     430   -0.7137935984E+02   -0.35303E-06    0.10262E-04
     -  10 steepest descent iterations performed
     440   -0.7137936342E+02   -0.33994E-06    0.13591E-05
     450   -0.7137936704E+02   -0.37044E-06    0.12345E-04
     -  10 steepest descent iterations performed
     460   -0.7137937079E+02   -0.33517E-06    0.13214E-05
     470   -0.7137937414E+02   -0.34334E-06    0.10070E-04
     -  10 steepest descent iterations performed
     480   -0.7137937764E+02   -0.33229E-06    0.13353E-05
     490   -0.7137938118E+02   -0.36183E-06    0.12156E-04
     -  10 steepest descent iterations performed
     500   -0.7137938486E+02   -0.32943E-06    0.13090E-05
     510   -0.7137938816E+02   -0.33756E-06    0.99777E-05
     -  10 steepest descent iterations performed
     520   -0.7137939161E+02   -0.32825E-06    0.13282E-05
     530   -0.7137939510E+02   -0.35761E-06    0.12119E-04
     -  10 steepest descent iterations performed
     540   -0.7137939875E+02   -0.32747E-06    0.13104E-05
     550   -0.7137940203E+02   -0.33614E-06    0.10017E-04
     -  10 steepest descent iterations performed
     560   -0.7137940548E+02   -0.32833E-06    0.13385E-05
     570   -0.7137940898E+02   -0.35824E-06    0.12243E-04
     -  10 steepest descent iterations performed
     580   -0.7137941265E+02   -0.32985E-06    0.13296E-05
     590   -0.7137941596E+02   -0.33978E-06    0.10219E-04
     -  10 steepest descent iterations performed
     600   -0.7137941946E+02   -0.33320E-06    0.13684E-05
     610   -0.7137942301E+02   -0.36469E-06    0.12564E-04
     -  10 steepest descent iterations performed
     620   -0.7137942675E+02   -0.33763E-06    0.13705E-05
     630   -0.7137943015E+02   -0.35000E-06    0.10631E-04
     -  10 steepest descent iterations performed
     640   -0.7137943377E+02   -0.34453E-06    0.14259E-05
     650   -0.7137943744E+02   -0.37850E-06    0.13161E-04
     -  10 steepest descent iterations performed
     660   -0.7137944134E+02   -0.35201E-06    0.14370E-05
     670   -0.7137944489E+02   -0.36527E-06    0.11183E-04
     -  10 steepest descent iterations performed
     680   -0.7137944867E+02   -0.36088E-06    0.15062E-05
     690   -0.7137945252E+02   -0.39684E-06    0.13919E-04
     -  10 steepest descent iterations performed
     700   -0.7137945662E+02   -0.37062E-06    0.15199E-05
     710   -0.7137946036E+02   -0.38535E-06    0.11884E-04
     -  10 steepest descent iterations performed
     720   -0.7137946436E+02   -0.38198E-06    0.16059E-05
     730   -0.7137946843E+02   -0.42038E-06    0.14851E-04
     -  10 steepest descent iterations performed
     740   -0.7137947279E+02   -0.39422E-06    0.16230E-05
     750   -0.7137947677E+02   -0.41043E-06    0.12746E-04
     -  10 steepest descent iterations performed
     760   -0.7137948103E+02   -0.40792E-06    0.17248E-05
     770   -0.7137948538E+02   -0.44784E-06    0.15909E-04
     -  10 steepest descent iterations performed
     780   -0.7137949003E+02   -0.42150E-06    0.17397E-05
     790   -0.7137949428E+02   -0.43805E-06    0.13673E-04
     -  10 steepest descent iterations performed
     800   -0.7137949884E+02   -0.43645E-06    0.18543E-05
     810   -0.7137950349E+02   -0.47847E-06    0.17072E-04
     -  10 steepest descent iterations performed
     820   -0.7137950846E+02   -0.45196E-06    0.18680E-05
     830   -0.7137951303E+02   -0.47012E-06    0.14741E-04
     -  10 steepest descent iterations performed
     840   -0.7137951793E+02   -0.46948E-06    0.20023E-05
     850   -0.7137952293E+02   -0.51427E-06    0.18412E-04
     -  10 steepest descent iterations performed
     860   -0.7137952828E+02   -0.48746E-06    0.20156E-05
     870   -0.7137953321E+02   -0.50732E-06    0.15965E-04
     -  10 steepest descent iterations performed
     880   -0.7137953851E+02   -0.50770E-06    0.21725E-05
     -  10 steepest descent iterations performed
     890   -0.7137954142E+02   -0.42333E-06    0.28924E-05
     900   -0.7138001663E+02   -0.21096E-04    0.13150E+00
     -  10 steepest descent iterations performed
     910   -0.7138040747E+02   -0.18062E-04    0.16491E-03
     920   -0.7138049638E+02   -0.10348E-04    0.10658E-03
     930   -0.7138059372E+02   -0.72964E-05    0.42461E-03
     940   -0.7138064264E+02   -0.90346E-05    0.19572E-03
     -  10 steepest descent iterations performed
     950   -0.7138067994E+02   -0.41186E-05    0.21275E-04
     960   -0.7138073941E+02   -0.79476E-05    0.33825E-03
     -  10 steepest descent iterations performed
     970   -0.7138076994E+02   -0.28419E-05    0.12783E-04
     980   -0.7138080970E+02   -0.46952E-05    0.17913E-03
     -  10 steepest descent iterations performed
     990   -0.7138084320E+02   -0.28592E-05    0.10793E-04
    1000   -0.7138087181E+02   -0.33166E-05    0.88091E-04
 *** arrived at the Maximum iteration.  terminated
     >>>  ITERATION ENDED   AT Fri Apr 21 15:05:33 2023  <<<


==  Summary Of Results  ==

 number of electrons: spin up=    7.00000  down=    7.00000 (real space)

 total     energy    :  -0.7138087181E+02 (   -0.71381E+02/ion)
 total orbital energy:  -0.8449929325E+01 (   -0.12071E+01/electron)
 hartree   energy    :   0.3917681104E+02 (    0.55967E+01/electron)
 exc-corr  energy    :  -0.2404801601E+02 (   -0.34354E+01/electron)
 ion-ion   energy    :  -0.1069442896E+02 (   -0.10694E+02/ion)

 kinetic (planewave) :   0.4843972461E+02 (    0.69200E+01/electron)
 V_local (planewave) :  -0.8762313473E+02 (   -0.12518E+02/electron)
 V_nl    (planewave) :  -0.3663182777E+02 (   -0.52331E+01/electron)
 V_Coul  (planewave) :   0.7835362207E+02 (    0.11193E+02/electron)
 V_xc.   (planewave) :  -0.1098831351E+02 (   -0.15698E+01/electron)
 Virial Coefficient  :  -0.1174442142E+01

 orbital energies:
    -0.6962275E-01 (  -1.895eV)
    -0.7978156E-01 (  -2.171eV)
    -0.1366324E+00 (  -3.718eV)
    -0.8109400E+00 ( -22.067eV)
    -0.8140721E+00 ( -22.152eV)
    -0.8208358E+00 ( -22.336eV)
    -0.1493080E+01 ( -40.629eV)

 Total PSPW energy     :  -0.7138087181E+02


=== Spin Contamination ===

 <Sexact^2> =    0.0000000000000000     
 <S^2>      =    0.0000000000000000     



== Center of Charge ==

spin up     (   -0.0015,   -0.0009,    0.0003 )
spin down   (   -0.0015,   -0.0009,    0.0003 )
     total  (   -0.0015,   -0.0009,    0.0003 )
ionic       (    0.0000,    0.0000,    0.0000 )


== Molecular Dipole wrt Center of Mass ==

mu   =  (    0.0211,    0.0129,   -0.0047 ) au
|mu| =     0.0252 au,       0.0641 Debye

 output psi filename:./perm/pspw-pbe-Nd1.movecs

 Writing Crystallographic Information File:./perm/Nd1.cif
   - cell not shifted (nwpw:cif_shift_cell .false.)


== Timing ==

cputime in seconds
  prologue    :   0.138343E+02
  main loop   :   0.607021E+03
  epilogue    :   0.214501E+00
  total       :   0.621070E+03
  cputime/step:   0.225407E+00       (    2693 evalulations,    1000 linesearches)


Time spent doing                        total          step       percent
  total time                 :   0.621072E+03  0.230625E+00       100.0 %
  i/o time                   :   0.135200E+02  0.502043E-02         2.2 %
  FFTs                       :   0.182209E+03  0.676604E-01        29.3 %
  dot products               :   0.155268E+02  0.576561E-02         2.5 %
  geodesic                   :   0.211060E+02  0.783735E-02         3.4 %
  ffm_dgemm                  :   0.334641E+01  0.124263E-02         0.5 %
  fmf_dgemm                  :   0.169819E+02  0.630593E-02         2.7 %
  mmm_dgemm                  :   0.507330E-01  0.188388E-04         0.0 %
  m_diagonalize              :   0.215000E-01  0.798368E-05         0.0 %
  exchange correlation       :   0.252805E+03  0.938750E-01        40.7 %
  local pseudopotentials     :   0.607000E-03  0.225399E-06         0.0 %
  non-local pseudopotentials :   0.234850E+02  0.872076E-02         3.8 %
  hartree potentials         :   0.159449E+01  0.592088E-03         0.3 %
  ion-ion interaction        :   0.111323E+00  0.413379E-04         0.0 %
  structure factors          :   0.360906E+00  0.134016E-03         0.1 %
  phase factors              :   0.399900E-05  0.148496E-08         0.0 %
  masking and packing        :   0.251219E+02  0.932861E-02         4.0 %
  queue fft                  :   0.216180E+03  0.802750E-01        34.8 %
  queue fft (serial)         :   0.108270E+03  0.402042E-01        17.4 %
  queue fft (message passing):   0.103369E+03  0.383844E-01        16.6 %
  non-local psp FFM          :   0.108156E+02  0.401619E-02         1.7 %
  non-local psp FMF          :   0.890544E+01  0.330689E-02         1.4 %
  non-local psp FFM A        :   0.331666E+01  0.123159E-02         0.5 %
  non-local psp FFM B        :   0.687760E+01  0.255388E-02         1.1 %

     >>>  JOB COMPLETED     AT Fri Apr 21 15:05:34 2023  <<<

 Task  times  cpu:     1015.2s     wall:     1015.2s


                                NWChem Input Module
                                -------------------


 Summary of allocated global arrays
-----------------------------------
  No active global arrays


MA_summarize_allocated_blocks: starting scan ...
MA_summarize_allocated_blocks: scan completed: 0 heap blocks, 0 stack blocks
MA usage statistics:

	allocation statistics:
					      heap	     stack
					      ----	     -----
	current number of blocks	         0	         0
	maximum number of blocks	       273	        15
	current total bytes		         0	         0
	maximum total bytes		 341386304	  46300584
	maximum total K-bytes		    341387	     46301
	maximum total M-bytes		       342	        47


                                     CITATION
                                     --------
                Please cite the following reference when publishing
                           results obtained with NWChem:

          E. Apra, E. J. Bylaska, W. A. de Jong, N. Govind, K. Kowalski,
       T. P. Straatsma, M. Valiev, H. J. J. van Dam, Y. Alexeev, J. Anchell,
       V. Anisimov, F. W. Aquino, R. Atta-Fynn, J. Autschbach, N. P. Bauman,
     J. C. Becca, D. E. Bernholdt, K. Bhaskaran-Nair, S. Bogatko, P. Borowski,
         J. Boschen, J. Brabec, A. Bruner, E. Cauet, Y. Chen, G. N. Chuev,
      C. J. Cramer, J. Daily, M. J. O. Deegan, T. H. Dunning Jr., M. Dupuis,
   K. G. Dyall, G. I. Fann, S. A. Fischer, A. Fonari, H. Fruchtl, L. Gagliardi,
      J. Garza, N. Gawande, S. Ghosh, K. Glaesemann, A. W. Gotz, J. Hammond,
       V. Helms, E. D. Hermes, K. Hirao, S. Hirata, M. Jacquelin, L. Jensen,
   B. G. Johnson, H. Jonsson, R. A. Kendall, M. Klemm, R. Kobayashi, V. Konkov,
      S. Krishnamoorthy, M. Krishnan, Z. Lin, R. D. Lins, R. J. Littlefield,
      A. J. Logsdail, K. Lopata, W. Ma, A. V. Marenich, J. Martin del Campo,
   D. Mejia-Rodriguez, J. E. Moore, J. M. Mullin, T. Nakajima, D. R. Nascimento,
    J. A. Nichols, P. J. Nichols, J. Nieplocha, A. Otero-de-la-Roza, B. Palmer,
    A. Panyala, T. Pirojsirikul, B. Peng, R. Peverati, J. Pittner, L. Pollack,
   R. M. Richard, P. Sadayappan, G. C. Schatz, W. A. Shelton, D. W. Silverstein,
   D. M. A. Smith, T. A. Soares, D. Song, M. Swart, H. L. Taylor, G. S. Thomas,
            V. Tipparaju, D. G. Truhlar, K. Tsemekhman, T. Van Voorhis,
      A. Vazquez-Mayagoitia, P. Verma, O. Villa, A. Vishnu, K. D. Vogiatzis,
        D. Wang, J. H. Weare, M. J. Williamson, T. L. Windus, K. Wolinski,
        A. T. Wong, Q. Wu, C. Yang, Q. Yu, M. Zacharias, Z. Zhang, Y. Zhao,
                                and R. J. Harrison
                        "NWChem: Past, present, and future
                         J. Chem. Phys. 152, 184102 (2020)
                               doi:10.1063/5.0004997

                                      AUTHORS
                                      -------
  E. Apra, E. J. Bylaska, N. Govind, K. Kowalski, M. Valiev, D. Mejia-Rodriguez,
       A. Kunitsa, N. P. Bauman, A. Panyala, W. A. de Jong, T. P. Straatsma,
   H. J. J. van Dam, D. Wang, T. L. Windus, J. Hammond, J. Autschbach, A. Woods,
    K. Bhaskaran-Nair, J. Brabec, K. Lopata, S. A. Fischer, S. Krishnamoorthy,
     M. Jacquelin, W. Ma, M. Klemm, O. Villa, Y. Chen, V. Anisimov, F. Aquino,
     S. Hirata, M. T. Hackler, E. Hermes, L. Jensen, J. E. Moore, J. C. Becca,
      V. Konjkov, T. Risthaus, M. Malagoli, A. Marenich, A. Otero-de-la-Roza,
        J. Mullin, P. Nichols, R. Peverati, J. Pittner, Y. Zhao, P.-D. Fan,
        A. Fonari, M. J. Williamson, R. J. Harrison, J. R. Rehr, M. Dupuis,
     D. Silverstein, D. M. A. Smith, J. Nieplocha, V. Tipparaju, M. Krishnan,
     B. E. Van Kuiken, A. Vazquez-Mayagoitia, M. Swart, Q. Wu, T. Van Voorhis,
     A. A. Auer, M. Nooijen, L. D. Crosby, E. Brown, G. Cisneros, G. I. Fann,
   H. Fruchtl, J. Garza, K. Hirao, R. A. Kendall, J. A. Nichols, K. Tsemekhman,
    K. Wolinski, J. Anchell, D. E. Bernholdt, P. Borowski, T. Clark, D. Clerc,
   H. Dachsel, M. J. O. Deegan, K. Dyall, D. Elwood, E. Glendening, M. Gutowski,
   A. C. Hess, J. Jaffe, B. G. Johnson, J. Ju, R. Kobayashi, R. Kutteh, Z. Lin,
   R. Littlefield, X. Long, B. Meng, T. Nakajima, S. Niu, L. Pollack, M. Rosing,
   K. Glaesemann, G. Sandrone, M. Stave, H. Taylor, G. Thomas, J. H. van Lenthe,
                               A. T. Wong, Z. Zhang.

 Total times  cpu:     1015.2s     wall:     1015.2s
