 argument  1 = Dy1.nw



============================== echo of input deck ==============================
title "swnc: e theory=pspw xc=pbe formula=H130O65dy1 charge=0 mult=3"
#machinejob:expert

permanent_dir ./perm
scratch_dir   ./perm

echo

start pspw-pbe-Dy1

memory 2300 mb

charge 0

geometry
Dy 0.0 0.0 0.0
end


nwpw
  simulation_cell
     SC 26.0
     #boundary_conditions aperiodic
  end

  ### pseudopotential block begin ###
  pseudopotentials
    Dy library paw_default
  end
  ### pseudopotential block end   ###
  2d-hcurve
  time_step 1.0
  cutoff 60.0
  lmbfgs

  mult 5
  xc pbe96

end
set nwpw:kbpp_ray    .true.
set nwpw:kbpp_filter .true.
#set nwpw:gram-schmidt .true.
set nwpw:cif_filename Dy1

#task pspw steepest_descent
task pspw energy ignore

nwpw
   dplot
       orbital  1 dy1-orb01.cube
       orbital  2 dy1-orb02.cube
       orbital  3 dy1-orb03.cube
       orbital  4 dy1-orb04.cube
       orbital  5 dy1-orb05.cube
       orbital  6 dy1-orb06.cube
       orbital  7 dy1-orb07.cube
       orbital  8 dy1-orb08.cube
       orbital  9 dy1-orb09.cube
       orbital 10 dy1-orb10.cube
       orbital 11 dy1-orb11.cube
       orbital 12 dy1-orb12.cube
       orbital 13 dy1-orb13.cube
       orbital 14 dy1-orb14.cube
       orbital 15 dy1-orb15.cube
       orbital 16 dy1-orb16.cube
       orbital 17 dy1-orb17.cube
       orbital 18 dy1-orb18.cube
       orbital 19 dy1-orb19.cube
       orbital 20 dy1-orb20.cube
    end
end
task pspw pspw_dplot
================================================================================


                                         
                                         


             Northwest Computational Chemistry Package (NWChem) 7.2.0
             --------------------------------------------------------


                    Environmental Molecular Sciences Laboratory
                       Pacific Northwest National Laboratory
                                Richland, WA 99352

                              Copyright (c) 1994-2022
                       Pacific Northwest National Laboratory
                            Battelle Memorial Institute

             NWChem is an open-source computational chemistry package
                        distributed under the terms of the
                      Educational Community License (ECL) 2.0
             A copy of the license is included with this distribution
                              in the LICENSE.TXT file

                                  ACKNOWLEDGMENT
                                  --------------

            This software and its documentation were developed at the
            EMSL at Pacific Northwest National Laboratory, a multiprogram
            national laboratory, operated for the U.S. Department of Energy
            by Battelle under Contract Number DE-AC05-76RL01830. Support
            for this work was provided by the Department of Energy Office
            of Biological and Environmental Research, Office of Basic
            Energy Sciences, and the Office of Advanced Scientific Computing.


           Job information
           ---------------

    hostname        = Erics-MacBook-Pro.local
    program         = nwchem
    date            = Wed Apr 12 17:48:55 2023

    compiled        = Mon_Mar_27_19:09:42_2023
    source          = /Users/bylaska/nwchem-releases/nwchem
    nwchem branch   = 7.2.0
    nwchem revision = v7.2.0-beta1-380-gdf1eef5276
    ga revision     = 5.8.0
    use scalapack   = F
    input           = Dy1.nw
    prefix          = pspw-pbe-Dy1.
    data base       = ./perm/pspw-pbe-Dy1.db
    status          = startup
    nproc           =        6
    time left       =     -1s



           Memory information
           ------------------

    heap     =   75366396 doubles =    575.0 Mbytes
    stack    =   75366401 doubles =    575.0 Mbytes
    global   =  150732800 doubles =   1150.0 Mbytes (distinct from heap & stack)
    total    =  301465597 doubles =   2300.0 Mbytes
    verify   = yes
    hardfail = no 


           Directory information
           ---------------------

  0 permanent = ./perm
  0 scratch   = ./perm




                                NWChem Input Module
                                -------------------


           swnc: e theory=pspw xc=pbe formula=H130O65dy1 charge=0 mult=3
           -------------------------------------------------------------

 Scaling coordinates for geometry "geometry" by  1.889725989
 (inverse scale =  0.529177249)



                             Geometry "geometry" -> ""
                             -------------------------

 Output coordinates in angstroms (scale by  1.889725989 to convert to a.u.)

  No.       Tag          Charge          X              Y              Z
 ---- ---------------- ---------- -------------- -------------- --------------
    1 Dy                  66.0000     0.00000000     0.00000000     0.00000000

      Atomic Mass 
      ----------- 

      Dy               163.928800


 Effective nuclear repulsion energy (a.u.)       0.0000000000

            Nuclear Dipole moment (a.u.) 
            ----------------------------
        X                 Y               Z
 ---------------- ---------------- ----------------
     0.0000000000     0.0000000000     0.0000000000


            XYZ format geometry
            -------------------
     1
 geometry
 Dy                    0.00000000     0.00000000     0.00000000

          ****************************************************
          *                                                  *
          *               NWPW PSPW Calculation              *
          *                                                  *
          * [ (Grassmann/Stiefel manifold implementation)  ] *
          *                                                  *
          *      [ NorthWest Chemistry implementation ]      *
          *                                                  *
          *            version #5.10   06/12/02              *
          *                                                  *
          *    This code was developed by Eric J. Bylaska,   *
          *    and was based upon algorithms and code        *
          *    developed by the group of Prof. John H. Weare *
          *                                                  *
          ****************************************************
     >>>  JOB STARTED       AT Wed Apr 12 17:48:55 2023  <<<
          ================ input data ========================
  library name resolved from: compiled reference
  NWCHEM_NWPW_LIBRARY set to: </Users/bylaska/nwchem-releases/nwchem/src/nwpw/libraryps/>
 Generating 1d pseudopotential for Dy  
Error paw_R_Pauli: More than 1000 iterations. n=4, l=3, Eig=5.488417e-03
Error paw_R_Pauli: More than 1000 iterations. n=4, l=3, Eig=1.326343e-02

 Generated formatted_filename: ./perm/Dy.vpp
 - filtering pseudopotential -
 random planewave guess, initial psi:pspw-pbe-Dy1.movecs                               
 -   spin, nalpha, nbeta:                    2                   12                    8

 input psi filename:./perm/pspw-pbe-Dy1.movecs

 Warning - K.S. orbitals are not orthonormal. Applying Gram-Schmidt orthonormalization.
         - exact norm=0.200000E+02 norm=0.128143E+02 corrected norm=0.200000E+02 (error=0.718572E+01)


 number of processors used:         6
 processor grid           :   6 x   1
 parallel mapping         : 2d-hcurve
 parallel mapping         :  balanced
 number of threads        :         1
 parallel io              :       off

 options:
      boundary conditions  = periodic    (version3)
      electron spin        = unrestricted
      exchange-correlation = PBE96 (White and Bird) parameterization

 elements involved in the cluster:
      1: Dy  valence charge:20.0  core charge:46.0
             comment    : Parameterized Dy paw (4f5s5p5d5f6s6p projectors, 4/2/2022 by EJB)
             pseudpotential type            :   4
             loggrid parameter r0        : 0.200E-02
             loggrid parameter rmax      : 0.250E+02
             loggrid parameter npoints   :      3000
             augmentation sphere radius  :     2.392 ( 2254 npoints 2254 per task)
             compensation sigma          :     0.346
             total number of projectors  :        27
             n_ps (n) l          eig      #projector
                4 (4) f    -0.150394               7
                1 (5) s    -1.718647               1
                2 (5) p    -0.957830               3
                3 (5) d    -0.061063               5
                5 (5) f     1.000000               7
                2 (6) s    -0.143591               1
                3 (6) p    -0.051116               3


 total charge:   0.000

 atomic composition:
     Dy  :    1

 number of electrons: spin up=    12 (  12 per task)  down=     8 (   8 per task) (Fourier space)
 number of orbitals : spin up=    12 (  12 per task)  down=     8 (   8 per task) (Fourier space)

 supercell:
      cell_name:  cell_default                                      
      lattice:    a1=<  26.000   0.000   0.000 >
                  a2=<   0.000  26.000   0.000 >
                  a3=<   0.000   0.000  26.000 >
      reciprocal: b1=<   0.242   0.000   0.000 >
                  b2=<   0.000   0.242   0.000 >
                  b3=<   0.000   0.000   0.242 >
      lattice:    a=      26.000 b=     26.000 c=      26.000
                  alpha=  90.000 beta=  90.000 gamma=  90.000
                  omega=     17576.0

      density cutoff= 30.000  fft= 70x 70x 70(    69013 waves    11502 per task)
      wavefnc cutoff= 15.000  fft= 70x 70x 70(    24347 waves     4057 per task)
      paw integration: xc lmax=  0 compensation charge= two-electron Gaussian
      Ewald summation: cut radius=    8.28  and  1
                       Madelung Wigner-Seitz=    1.76011888 (alpha=    2.83729748 rs=16.12911276)

 technical parameters:
      time step=      1.00     fictitious mass=  400000.0
      tolerance=0.100E-06 (energy)   0.100E-06 (density)
      maximum iterations =      1000 (   10 inner    100 outer )





== Energy Calculation ==


          ============ Grassmann lmbfgs iteration ============
     >>>  ITERATION STARTED AT Wed Apr 12 17:49:12 2023  <<<
    iter.           Energy         DeltaE       DeltaRho 
    ------------------------------------------------------
     -  15 steepest descent iterations performed
      10   -0.3819405584E+03   -0.58077E+00    0.50062E+01
     -  10 steepest descent iterations performed
      20   -0.3835492392E+03   -0.34788E-01    0.57800E-01
     -  10 steepest descent iterations performed
      30   -0.3836537108E+03   -0.41517E-02    0.29630E-02
      40   -0.3836725706E+03   -0.15109E-02    0.14241E-03
      50   -0.3837014637E+03   -0.17279E-02    0.12717E-02
     -  10 steepest descent iterations performed
      60   -0.3837256391E+03   -0.16220E-02    0.17983E-02
      70   -0.3837315915E+03   -0.20325E-03    0.16606E-02
      80   -0.3837330179E+03   -0.88726E-04    0.15448E-02
      90   -0.3837336266E+03   -0.38087E-04    0.95647E-03
     100   -0.3837339966E+03   -0.36373E-04    0.20598E-03
     110   -0.3837343263E+03   -0.14134E-04    0.10903E-03
     120   -0.3837343997E+03   -0.94818E-05    0.25038E-04
     130   -0.3837344581E+03   -0.64756E-05    0.94390E-04
