 argument  1 = Lu1.nw



============================== echo of input deck ==============================
title "swnc: e theory=pspw xc=pbe formula=H130O65Lu1 charge=0 mult=2"
#machinejob:expert

permanent_dir ./perm
scratch_dir   ./perm

echo

start pspw-pbe-Lu1

memory 2300 mb

charge 0

geometry
Lu 0.0 0.0 0.0
end


nwpw
  simulation_cell
     SC 26.0
     boundary_conditions aperiodic
  end

  ### pseudopotential block begin ###
  pseudopotentials
    Lu library paw_default
  end
  ### pseudopotential block end   ###
  2d-hcurve
  time_step 1.0
  cutoff 60.0
  lmbfgs

  mult 2
  xc pbe96

end
set nwpw:kbpp_ray    .true.
set nwpw:kbpp_filter .true.
#set nwpw:gram-schmidt .true.
set nwpw:cif_filename Lu1

#task pspw steepest_descent
task pspw energy ignore

nwpw
   dplot
       orbital  1 lu1-orb01.cube
       orbital  2 lu1-orb02.cube
       orbital  3 lu1-orb03.cube
       orbital  4 lu1-orb04.cube
       orbital  5 lu1-orb05.cube
       orbital  6 lu1-orb06.cube
       orbital  7 lu1-orb07.cube
       orbital  8 lu1-orb08.cube
       orbital  9 lu1-orb09.cube
       orbital 10 lu1-orb10.cube
       orbital 11 lu1-orb11.cube
       orbital 12 lu1-orb12.cube
       orbital 13 lu1-orb13.cube
       orbital 14 lu1-orb14.cube
       orbital 15 lu1-orb15.cube
       orbital 16 lu1-orb16.cube
       orbital 17 lu1-orb17.cube
       orbital 18 lu1-orb18.cube
       orbital 19 lu1-orb19.cube
       orbital 20 lu1-orb20.cube
       orbital 21 lu1-orb21.cube
       orbital 22 lu1-orb22.cube
       orbital 23 lu1-orb23.cube
       orbital 24 lu1-orb24.cube
       orbital 25 lu1-orb25.cube
    end
end
task pspw pspw_dplot
================================================================================


                                         
                                         


             Northwest Computational Chemistry Package (NWChem) 7.2.0
             --------------------------------------------------------


                    Environmental Molecular Sciences Laboratory
                       Pacific Northwest National Laboratory
                                Richland, WA 99352

                              Copyright (c) 1994-2022
                       Pacific Northwest National Laboratory
                            Battelle Memorial Institute

             NWChem is an open-source computational chemistry package
                        distributed under the terms of the
                      Educational Community License (ECL) 2.0
             A copy of the license is included with this distribution
                              in the LICENSE.TXT file

                                  ACKNOWLEDGMENT
                                  --------------

            This software and its documentation were developed at the
            EMSL at Pacific Northwest National Laboratory, a multiprogram
            national laboratory, operated for the U.S. Department of Energy
            by Battelle under Contract Number DE-AC05-76RL01830. Support
            for this work was provided by the Department of Energy Office
            of Biological and Environmental Research, Office of Basic
            Energy Sciences, and the Office of Advanced Scientific Computing.


           Job information
           ---------------

    hostname        = Erics-MacBook-Pro.local
    program         = nwchem
    date            = Wed Apr 12 15:53:59 2023

    compiled        = Mon_Mar_27_19:09:42_2023
    source          = /Users/bylaska/nwchem-releases/nwchem
    nwchem branch   = 7.2.0
    nwchem revision = v7.2.0-beta1-380-gdf1eef5276
    ga revision     = 5.8.0
    use scalapack   = F
    input           = Lu1.nw
    prefix          = pspw-pbe-Lu1.
    data base       = ./perm/pspw-pbe-Lu1.db
    status          = startup
    nproc           =        6
    time left       =     -1s



           Memory information
           ------------------

    heap     =   75366396 doubles =    575.0 Mbytes
    stack    =   75366401 doubles =    575.0 Mbytes
    global   =  150732800 doubles =   1150.0 Mbytes (distinct from heap & stack)
    total    =  301465597 doubles =   2300.0 Mbytes
    verify   = yes
    hardfail = no 


           Directory information
           ---------------------

  0 permanent = ./perm
  0 scratch   = ./perm




                                NWChem Input Module
                                -------------------


           swnc: e theory=pspw xc=pbe formula=H130O65Lu1 charge=0 mult=2
           -------------------------------------------------------------

 Scaling coordinates for geometry "geometry" by  1.889725989
 (inverse scale =  0.529177249)



                             Geometry "geometry" -> ""
                             -------------------------

 Output coordinates in angstroms (scale by  1.889725989 to convert to a.u.)

  No.       Tag          Charge          X              Y              Z
 ---- ---------------- ---------- -------------- -------------- --------------
    1 Lu                  71.0000     0.00000000     0.00000000     0.00000000

      Atomic Mass 
      ----------- 

      Lu               174.940900


 Effective nuclear repulsion energy (a.u.)       0.0000000000

            Nuclear Dipole moment (a.u.) 
            ----------------------------
        X                 Y               Z
 ---------------- ---------------- ----------------
     0.0000000000     0.0000000000     0.0000000000


            XYZ format geometry
            -------------------
     1
 geometry
 Lu                    0.00000000     0.00000000     0.00000000

          ****************************************************
          *                                                  *
          *               NWPW PSPW Calculation              *
          *                                                  *
          * [ (Grassmann/Stiefel manifold implementation)  ] *
          *                                                  *
          *      [ NorthWest Chemistry implementation ]      *
          *                                                  *
          *            version #5.10   06/12/02              *
          *                                                  *
          *    This code was developed by Eric J. Bylaska,   *
          *    and was based upon algorithms and code        *
          *    developed by the group of Prof. John H. Weare *
          *                                                  *
          ****************************************************
     >>>  JOB STARTED       AT Wed Apr 12 15:53:59 2023  <<<
          ================ input data ========================
  library name resolved from: compiled reference
  NWCHEM_NWPW_LIBRARY set to: </Users/bylaska/nwchem-releases/nwchem/src/nwpw/libraryps/>
 Generating 1d pseudopotential for Lu  

 Generated formatted_filename: ./perm/Lu.vpp
 - filtering pseudopotential -
 random planewave guess, initial psi:pspw-pbe-Lu1.movecs                               
 -   spin, nalpha, nbeta:                    2                   13                   12

 input psi filename:./perm/pspw-pbe-Lu1.movecs

 Warning - K.S. orbitals are not orthonormal. Applying Gram-Schmidt orthonormalization.
         - exact norm=0.250000E+02 norm=0.159552E+02 corrected norm=0.250000E+02 (error=0.904481E+01)


 number of processors used:         6
 processor grid           :   6 x   1
 parallel mapping         : 2d-hcurve
 parallel mapping         :  balanced
 number of threads        :         1
 parallel io              :       off

 options:
      boundary conditions  = aperiodic   (version4)
      electron spin        = unrestricted
      exchange-correlation = PBE96 (White and Bird) parameterization

 elements involved in the cluster:
      1: Lu  valence charge:25.0  core charge:46.0
             comment    : Parameterized Lu paw (4f5s5p5d5f6s6p projectors, 4/5/2022 by EJB)
             pseudpotential type            :   4
             loggrid parameter r0        : 0.200E-02
             loggrid parameter rmax      : 0.250E+02
             loggrid parameter npoints   :      3000
             augmentation sphere radius  :     2.392 ( 2254 npoints 2254 per task)
             compensation sigma          :     0.346
             total number of projectors  :        27
             n_ps (n) l          eig      #projector
                4 (4) f    -0.386391               7
                1 (5) s    -2.109986               1
                2 (5) p    -1.185266               3
                3 (5) d    -0.078758               5
                5 (5) f     1.000000               7
                2 (6) s    -0.168724               1
                3 (6) p    -0.054943               3


 total charge:   0.000

 atomic composition:
     Lu  :    1

 number of electrons: spin up=    13 (  13 per task)  down=    12 (  12 per task) (Fourier space)
 number of orbitals : spin up=    13 (  13 per task)  down=    12 (  12 per task) (Fourier space)

 supercell:
      cell_name:  cell_default                                      
      lattice:    a1=<  26.000   0.000   0.000 >
                  a2=<   0.000  26.000   0.000 >
                  a3=<   0.000   0.000  26.000 >
      reciprocal: b1=<   0.242   0.000   0.000 >
                  b2=<   0.000   0.242   0.000 >
                  b3=<   0.000   0.000   0.242 >
      lattice:    a=      26.000 b=     26.000 c=      26.000
                  alpha=  90.000 beta=  90.000 gamma=  90.000
                  omega=     17576.0

      density cutoff= 30.000  fft= 70x 70x 70(    69013 waves    11502 per task)
      wavefnc cutoff= 15.000  fft= 70x 70x 70(    24347 waves     4057 per task)
      paw integration: xc lmax=  0 compensation charge= two-electron Gaussian

 technical parameters:
      time step=      1.00     fictitious mass=  400000.0
      tolerance=0.100E-06 (energy)   0.100E-06 (density)
      maximum iterations =      1000 (   10 inner    100 outer )





== Energy Calculation ==


          ============ Grassmann lmbfgs iteration ============
     >>>  ITERATION STARTED AT Wed Apr 12 15:54:11 2023  <<<
    iter.           Energy         DeltaE       DeltaRho 
    ------------------------------------------------------
     -  15 steepest descent iterations performed
      10   -0.2414714895E+04   -0.26805E+03    0.48837E+00
     -  10 steepest descent iterations performed
      20   -0.6607113354E+04   -0.19655E+03    0.10067E+01
     -  10 steepest descent iterations performed
      30   -0.9642494281E+04   -0.17062E+03    0.33852E+00
     -  10 steepest descent iterations performed
      40   -0.1240458485E+05   -0.20885E+03    0.27515E+00
     -  10 steepest descent iterations performed
      50   -0.1428042367E+05   -0.85337E+02    0.31990E+00
     -  10 steepest descent iterations performed
      60   -0.1739179552E+05   -0.80830E+02    0.33568E+00
     -  10 steepest descent iterations performed
      70   -0.1989980166E+05   -0.14885E+03    0.53441E+00
     -  10 steepest descent iterations performed
      80   -0.2281425495E+05   -0.11626E+03    0.67575E+00
     -  10 steepest descent iterations performed
      90   -0.2504586211E+05   -0.12933E+03    0.73590E+00
     -  10 steepest descent iterations performed
     100   -0.2713955593E+05   -0.12699E+03    0.23082E-01
     -  10 steepest descent iterations performed
     110   -0.2986501648E+05   -0.36458E+03    0.73834E+00
     -  10 steepest descent iterations performed
     120   -0.3214793240E+05   -0.14850E+03    0.24277E+00
     -  10 steepest descent iterations performed
     130   -0.3487577431E+05   -0.27345E+03    0.23104E+00
     -  10 steepest descent iterations performed
     140   -0.3728259825E+05   -0.12087E+03    0.23462E+00
 Warning: Lagrange Multiplier generation failed.
         +Try using a smaller time step
         +Gram-Schmidt being performed, spin:                    2
 Warning: Lagrange Multiplier generation failed.
         +Try using a smaller time step
         +Gram-Schmidt being performed, spin:                    2
 Warning: Lagrange Multiplier generation failed.
         +Try using a smaller time step
         +Gram-Schmidt being performed, spin:                    2
 Warning: Lagrange Multiplier generation failed.
         +Try using a smaller time step
         +Gram-Schmidt being performed, spin:                    2
     -  10 steepest descent iterations performed
