 argument  1 = Tm1.nw



============================== echo of input deck ==============================
title "swnc: e theory=pspw xc=pbe formula=H130O65tm1 charge=0 mult=3"
#machinejob:expert

permanent_dir ./perm
scratch_dir   ./perm

echo

start pspw-pbe-Tm1

memory 2300 mb

charge 0

geometry
Tm 0.0 0.0 0.0
end


nwpw
  simulation_cell
     SC 26.0
     #boundary_conditions aperiodic
  end

  ### pseudopotential block begin ###
  pseudopotentials
    Tm library paw_default
  end
  ### pseudopotential block end   ###
  2d-hcurve
  time_step 1.0
  cutoff 60.0
  lmbfgs

  mult 2
  xc pbe96

end
set nwpw:kbpp_ray    .true.
set nwpw:kbpp_filter .true.
#set nwpw:gram-schmidt .true.
set nwpw:cif_filename Tm1

#task pspw steepest_descent
task pspw energy ignore

nwpw
   dplot
       orbital  1 tm1-orb01.cube
       orbital  2 tm1-orb02.cube
       orbital  3 tm1-orb03.cube
       orbital  4 tm1-orb04.cube
       orbital  5 tm1-orb05.cube
       orbital  6 tm1-orb06.cube
       orbital  7 tm1-orb07.cube
       orbital  8 tm1-orb08.cube
       orbital  9 tm1-orb09.cube
       orbital 10 tm1-orb10.cube
       orbital 11 tm1-orb11.cube
       orbital 12 tm1-orb12.cube
       orbital 13 tm1-orb13.cube
       orbital 14 tm1-orb14.cube
       orbital 15 tm1-orb15.cube
       orbital 16 tm1-orb16.cube
       orbital 17 tm1-orb17.cube
       orbital 18 tm1-orb18.cube
       orbital 19 tm1-orb19.cube
       orbital 20 tm1-orb20.cube
       orbital 21 tm1-orb21.cube
       orbital 22 tm1-orb22.cube
       orbital 23 tm1-orb23.cube
    end
end
task pspw pspw_dplot
================================================================================


                                         
                                         


             Northwest Computational Chemistry Package (NWChem) 7.2.0
             --------------------------------------------------------


                    Environmental Molecular Sciences Laboratory
                       Pacific Northwest National Laboratory
                                Richland, WA 99352

                              Copyright (c) 1994-2022
                       Pacific Northwest National Laboratory
                            Battelle Memorial Institute

             NWChem is an open-source computational chemistry package
                        distributed under the terms of the
                      Educational Community License (ECL) 2.0
             A copy of the license is included with this distribution
                              in the LICENSE.TXT file

                                  ACKNOWLEDGMENT
                                  --------------

            This software and its documentation were developed at the
            EMSL at Pacific Northwest National Laboratory, a multiprogram
            national laboratory, operated for the U.S. Department of Energy
            by Battelle under Contract Number DE-AC05-76RL01830. Support
            for this work was provided by the Department of Energy Office
            of Biological and Environmental Research, Office of Basic
            Energy Sciences, and the Office of Advanced Scientific Computing.


           Job information
           ---------------

    hostname        = Erics-MacBook-Pro.local
    program         = nwchem
    date            = Wed Apr 12 18:16:31 2023

    compiled        = Mon_Mar_27_19:09:42_2023
    source          = /Users/bylaska/nwchem-releases/nwchem
    nwchem branch   = 7.2.0
    nwchem revision = v7.2.0-beta1-380-gdf1eef5276
    ga revision     = 5.8.0
    use scalapack   = F
    input           = Tm1.nw
    prefix          = pspw-pbe-Tm1.
    data base       = ./perm/pspw-pbe-Tm1.db
    status          = startup
    nproc           =        6
    time left       =     -1s



           Memory information
           ------------------

    heap     =   75366396 doubles =    575.0 Mbytes
    stack    =   75366401 doubles =    575.0 Mbytes
    global   =  150732800 doubles =   1150.0 Mbytes (distinct from heap & stack)
    total    =  301465597 doubles =   2300.0 Mbytes
    verify   = yes
    hardfail = no 


           Directory information
           ---------------------

  0 permanent = ./perm
  0 scratch   = ./perm




                                NWChem Input Module
                                -------------------


           swnc: e theory=pspw xc=pbe formula=H130O65tm1 charge=0 mult=3
           -------------------------------------------------------------

 Scaling coordinates for geometry "geometry" by  1.889725989
 (inverse scale =  0.529177249)



                             Geometry "geometry" -> ""
                             -------------------------

 Output coordinates in angstroms (scale by  1.889725989 to convert to a.u.)

  No.       Tag          Charge          X              Y              Z
 ---- ---------------- ---------- -------------- -------------- --------------
    1 Tm                  69.0000     0.00000000     0.00000000     0.00000000

      Atomic Mass 
      ----------- 

      Tm               168.934400


 Effective nuclear repulsion energy (a.u.)       0.0000000000

            Nuclear Dipole moment (a.u.) 
            ----------------------------
        X                 Y               Z
 ---------------- ---------------- ----------------
     0.0000000000     0.0000000000     0.0000000000


            XYZ format geometry
            -------------------
     1
 geometry
 Tm                    0.00000000     0.00000000     0.00000000

          ****************************************************
          *                                                  *
          *               NWPW PSPW Calculation              *
          *                                                  *
          * [ (Grassmann/Stiefel manifold implementation)  ] *
          *                                                  *
          *      [ NorthWest Chemistry implementation ]      *
          *                                                  *
          *            version #5.10   06/12/02              *
          *                                                  *
          *    This code was developed by Eric J. Bylaska,   *
          *    and was based upon algorithms and code        *
          *    developed by the group of Prof. John H. Weare *
          *                                                  *
          ****************************************************
     >>>  JOB STARTED       AT Wed Apr 12 18:16:31 2023  <<<
          ================ input data ========================
  library name resolved from: compiled reference
  NWCHEM_NWPW_LIBRARY set to: </Users/bylaska/nwchem-releases/nwchem/src/nwpw/libraryps/>
 Generating 1d pseudopotential for Tm  

 Generated formatted_filename: ./perm/Tm.vpp
 - filtering pseudopotential -
 random planewave guess, initial psi:pspw-pbe-Tm1.movecs                               
 -   spin, nalpha, nbeta:                    2                   12                   11

 input psi filename:./perm/pspw-pbe-Tm1.movecs

 Warning - K.S. orbitals are not orthonormal. Applying Gram-Schmidt orthonormalization.
         - exact norm=0.230000E+02 norm=0.146957E+02 corrected norm=0.230000E+02 (error=0.830428E+01)


 number of processors used:         6
 processor grid           :   6 x   1
 parallel mapping         : 2d-hcurve
 parallel mapping         :  balanced
 number of threads        :         1
 parallel io              :       off

 options:
      boundary conditions  = periodic    (version3)
      electron spin        = unrestricted
      exchange-correlation = PBE96 (White and Bird) parameterization

 elements involved in the cluster:
      1: Tm  valence charge:23.0  core charge:46.0
             comment    : Parameterized Tm paw (4f5s5p5d5f6s6p projectors, 4/2/2022 by EJB)
             pseudpotential type            :   4
             loggrid parameter r0        : 0.200E-02
             loggrid parameter rmax      : 0.250E+02
             loggrid parameter npoints   :      3000
             augmentation sphere radius  :     2.392 ( 2254 npoints 2254 per task)
             compensation sigma          :     0.346
             total number of projectors  :        27
             n_ps (n) l          eig      #projector
                4 (4) f    -0.143264               7
                1 (5) s    -1.852144               1
                2 (5) p    -1.010203               3
                3 (5) d    -0.042324               5
                5 (5) f     1.000000               7
                2 (6) s    -0.143655               1
                3 (6) p    -0.046931               3


 total charge:   0.000

 atomic composition:
     Tm  :    1

 number of electrons: spin up=    12 (  12 per task)  down=    11 (  11 per task) (Fourier space)
 number of orbitals : spin up=    12 (  12 per task)  down=    11 (  11 per task) (Fourier space)

 supercell:
      cell_name:  cell_default                                      
      lattice:    a1=<  26.000   0.000   0.000 >
                  a2=<   0.000  26.000   0.000 >
                  a3=<   0.000   0.000  26.000 >
      reciprocal: b1=<   0.242   0.000   0.000 >
                  b2=<   0.000   0.242   0.000 >
                  b3=<   0.000   0.000   0.242 >
      lattice:    a=      26.000 b=     26.000 c=      26.000
                  alpha=  90.000 beta=  90.000 gamma=  90.000
                  omega=     17576.0

      density cutoff= 30.000  fft= 70x 70x 70(    69013 waves    11502 per task)
      wavefnc cutoff= 15.000  fft= 70x 70x 70(    24347 waves     4057 per task)
      paw integration: xc lmax=  0 compensation charge= two-electron Gaussian
      Ewald summation: cut radius=    8.28  and  1
                       Madelung Wigner-Seitz=    1.76011888 (alpha=    2.83729748 rs=16.12911276)

 technical parameters:
      time step=      1.00     fictitious mass=  400000.0
      tolerance=0.100E-06 (energy)   0.100E-06 (density)
      maximum iterations =      1000 (   10 inner    100 outer )





== Energy Calculation ==


          ============ Grassmann lmbfgs iteration ============
     >>>  ITERATION STARTED AT Wed Apr 12 18:16:46 2023  <<<
    iter.           Energy         DeltaE       DeltaRho 
    ------------------------------------------------------
     -  15 steepest descent iterations performed
      10   -0.4643339932E+03   -0.12814E+01    0.63592E+01
     -  10 steepest descent iterations performed
      20   -0.4666113157E+03   -0.87615E-01    0.88039E-01
     -  10 steepest descent iterations performed
      30   -0.4667982161E+03   -0.75852E-02    0.13150E-02
      40   -0.4668188655E+03   -0.90084E-03    0.32350E-03
      50   -0.4668219054E+03   -0.12167E-03    0.82312E-04
      60   -0.4668226094E+03   -0.57892E-04    0.10576E-04
      70   -0.4668229866E+03   -0.26202E-04    0.61290E-05
      80   -0.4668232438E+03   -0.12911E-04    0.88843E-06
      90   -0.4668232751E+03   -0.14917E-05    0.32165E-07
     100   -0.4668232808E+03   -0.25290E-06    0.39151E-07
     110   -0.4668232817E+03   -0.87408E-07    0.74119E-08
  *** tolerance ok. iteration terminated
     >>>  ITERATION ENDED   AT Wed Apr 12 18:17:26 2023  <<<


==  Summary Of Results  ==

 number of electrons: spin up=   12.00000  down=   11.00000 (real space)
     plane-wave part:             8.05922           7.04316 (real space)
      augmented part:             3.94078           3.95684 (real space)

 total     energy    :  -0.4668232817E+03 (   -0.46682E+03/ion)

 total paw energy    :  -0.1359031500E+05 (   -0.13590E+05/ion)
 total orbital energy:  -0.1139851973E+02 (   -0.49559E+00/electron)
 hartree   energy    :   0.5630391290E+02 (    0.24480E+01/electron)
 exc-corr  energy    :  -0.8993761923E+01 (   -0.39103E+00/electron)
 ion-ion   energy    :  -0.2886404551E+02 (   -0.28864E+02/ion)

 kinetic (planewave) :   0.4035184293E+02 (    0.17544E+01/electron)
 V_local (planewave) :  -0.2136473087E+03 (   -0.92890E+01/electron)
 V_nl    (planewave) :  -0.2021744463E+02 (   -0.87902E+00/electron)
 V_Coul  (planewave) :   0.1126078258E+03 (    0.48960E+01/electron)
 V_xc.   (planewave) :  -0.1168674124E+02 (   -0.50812E+00/electron)
 Virial Coefficient  :  -0.3294612070E+01

 kinetic (loc. basis):   0.3348201125E+03 (    0.14557E+02/electron)
 kinetic       (core):   0.1336186692E+05 (    0.13362E+05/ion)
 valence-core        :  -0.1046443476E+03 (   -0.45498E+01/electron)
 ncmp*V_local        :  -0.3987304187E+03 (   -0.17336E+02/electron)
 V_lpaw  (loc. basis):   0.5203261785E+01 (    0.22623E+00/electron)
 coulomb (loc. basis):  -0.2617791391E+02 (   -0.11382E+01/electron)
 coulomb  (ncmp-ncmp):   0.6845773340E+02 (    0.29764E+01/electron)
 coulomb    (ncmp-pw):   0.8119330610E+02 (    0.35301E+01/electron)
 exc-cor (loc. basis):  -0.2720956549E+03 (   -0.11830E+02/electron)
 pxc-cor (loc. basis):  -0.2261899763E+02 (   -0.22619E+02/electron)
 ion-core            :  -0.2648535864E+05 (   -0.26485E+05/ion)

 orbital energies:
    -0.1207038E+00 (  -3.285eV)
    -0.1207063E+00 (  -3.285eV)    -0.1193586E+00 (  -3.248eV)
    -0.1207069E+00 (  -3.285eV)    -0.1193610E+00 (  -3.248eV)
    -0.1217241E+00 (  -3.312eV)    -0.1193627E+00 (  -3.248eV)
    -0.1251509E+00 (  -3.406eV)    -0.1205043E+00 (  -3.279eV)
    -0.1255623E+00 (  -3.417eV)    -0.1219631E+00 (  -3.319eV)
    -0.1255632E+00 (  -3.417eV)    -0.1219634E+00 (  -3.319eV)
    -0.1255639E+00 (  -3.417eV)    -0.1219651E+00 (  -3.319eV)
    -0.7732914E+00 ( -21.042eV)    -0.7688005E+00 ( -20.920eV)
    -0.7732922E+00 ( -21.043eV)    -0.7688021E+00 ( -20.920eV)
    -0.7732999E+00 ( -21.043eV)    -0.7688133E+00 ( -20.921eV)
    -0.2471718E+01 ( -67.259eV)    -0.2470343E+01 ( -67.222eV)

 Total PSPW energy     :  -0.4668232817E+03


=== Spin Contamination ===

 <Sexact^2> =   0.75000000000000000     
 <S^2>      =    6.1386271551539968     



== Center of Charge ==

spin up     (    0.0001,   -0.0001,   -0.0001 )
spin down   (   -0.0000,   -0.0000,   -0.0000 )
     total  (    0.0000,   -0.0001,   -0.0001 )
ionic       (    0.0000,    0.0000,    0.0000 )


== Molecular Dipole wrt Center of Mass ==

mu   =  (   -0.0011,    0.0012,    0.0016 ) au
|mu| =     0.0022 au,       0.0057 Debye

 output psi filename:./perm/pspw-pbe-Tm1.movecs

 Writing Crystallographic Information File:./perm/Tm1.cif
   - cell not shifted (nwpw:cif_shift_cell .false.)


== Timing ==

cputime in seconds
  prologue    :   0.153975E+02
  main loop   :   0.405206E+02
  epilogue    :   0.121437E+00
  total       :   0.560395E+02
  cputime/step:   0.101301E+00       (     400 evalulations,     106 linesearches)


Time spent doing                        total          step       percent
  total time                 :   0.560419E+02  0.140105E+00       100.0 %
  i/o time                   :   0.147721E+02  0.369302E-01        26.4 %
  FFTs                       :   0.590387E+01  0.147597E-01        10.5 %
  dot products               :   0.618089E+01  0.154522E-01        11.0 %
  geodesic                   :   0.346913E+01  0.867283E-02         6.2 %
  ffm_dgemm                  :   0.210372E+00  0.525931E-03         0.4 %
  fmf_dgemm                  :   0.709196E+00  0.177299E-02         1.3 %
  mmm_dgemm                  :   0.443760E-01  0.110940E-03         0.1 %
  m_diagonalize              :   0.760585E-02  0.190146E-04         0.0 %
    - m_tredq                :   0.104252E+00  0.260630E-03         0.2 %
  exchange correlation       :   0.106771E+02  0.266928E-01        19.1 %
  local pseudopotentials     :   0.104200E-02  0.260500E-05         0.0 %
  non-local pseudopotentials :   0.803867E+01  0.200967E-01        14.3 %
  hartree potentials         :   0.441146E-01  0.110287E-03         0.1 %
  ion-ion interaction        :   0.174801E+01  0.437002E-02         3.1 %
  structure factors          :   0.307680E+00  0.769201E-03         0.5 %
  phase factors              :   0.299900E-05  0.749750E-08         0.0 %
  masking and packing        :   0.161868E+01  0.404671E-02         2.9 %
  queue fft                  :   0.126862E+02  0.317156E-01        22.6 %
  queue fft (serial)         :   0.676075E+01  0.169019E-01        12.1 %
  queue fft (message passing):   0.573750E+01  0.143438E-01        10.2 %
  paw gaussian integrals     :   0.583064E+00  0.145766E-02         1.0 %
  paw atomic coulomb         :   0.674678E+00  0.168670E-02         1.2 %
  paw atomic xc              :   0.333729E+01  0.834321E-02         6.0 %
  paw gen dEmult/dQlm        :   0.584138E-02  0.146034E-04         0.0 %
  paw gen dElocal/dQlm       :   0.564300E-02  0.141075E-04         0.0 %
  paw cmp operations         :   0.564300E-02  0.141075E-04         0.0 %
  nwpw_ugauss                :   0.200100E-05  0.500250E-08         0.0 %
  nwpw_wgauss                :   0.582674E+00  0.145669E-02         1.0 %
  nwpw_gaunt                 :   0.494883E+01  0.123721E-01         8.8 %
  non-local psp FFM          :   0.334783E+00  0.836958E-03         0.6 %
  non-local psp FMF          :   0.252509E+00  0.631273E-03         0.5 %
  non-local psp FFM A        :   0.523426E-01  0.130857E-03         0.1 %
  non-local psp FFM B        :   0.251894E+00  0.629735E-03         0.4 %

     >>>  JOB COMPLETED     AT Wed Apr 12 18:17:27 2023  <<<
          ****************************************************
          *                                                  *
          *               NWPW PSPW Calculation              *
          *                                                  *
          * [ (Grassmann/Stiefel manifold implementation)  ] *
          *                                                  *
          *      [ NorthWest Chemistry implementation ]      *
          *                                                  *
          *            version #5.10   06/12/02              *
          *                                                  *
          *    This code was developed by Eric J. Bylaska,   *
          *    and was based upon algorithms and code        *
          *    developed by the group of Prof. John H. Weare *
          *                                                  *
          ****************************************************
     >>>  JOB STARTED       AT Wed Apr 12 18:17:27 2023  <<<
          ================ input data ========================
 pseudopotential is not correctly formatted:Tm.vpp                                            

 Generated formatted_filename: ./perm/Tm.vpp
 - filtering pseudopotential -
 Error reading psi - bad grid
 nfft :                   70                   70                   70
 ngrid:                   96                   96                   96
 Error reading psi - bad grid
 nfft :                   70                   70                   70
 ngrid:                   96                   96                   96
 Error reading psi - bad grid

 Grid is being converted:
 ------------------------

 To turn off automatic grid conversion:

 set nwpw:psi_nogrid .false.

 old_filename: pspw-pbe-Tm1.movecs                               
 new_filename: pspw-pbe-Tm1.movecs                               
 converting  :  70x 70x 70 -->  96x 96x 96
converting .... psi:    1 spin: 1
converting .... psi:    2 spin: 1
converting .... psi:    3 spin: 1
converting .... psi:    4 spin: 1
converting .... psi:    5 spin: 1
converting .... psi:    6 spin: 1
converting .... psi:    7 spin: 1
converting .... psi:    8 spin: 1
converting .... psi:    9 spin: 1
converting .... psi:   10 spin: 1
converting .... psi:   11 spin: 1
converting .... psi:   12 spin: 1
converting .... psi:    1 spin: 2
converting .... psi:    2 spin: 2
converting .... psi:    3 spin: 2
converting .... psi:    4 spin: 2
converting .... psi:    5 spin: 2
converting .... psi:    6 spin: 2
converting .... psi:    7 spin: 2
converting .... psi:    8 spin: 2
converting .... psi:    9 spin: 2
converting .... psi:   10 spin: 2
converting .... psi:   11 spin: 2

 input psi filename:./perm/pspw-pbe-Tm1.movecs

 Warning - K.S. orbitals are not orthonormal. Applying Gram-Schmidt orthonormalization.
         - exact norm=0.230000E+02 norm=0.230001E+02 corrected norm=0.230000E+02 (error=0.696506E-04)


 number of processors used:         6
 processor grid           :   6 x   1
 parallel mapping         : 2d-hcurve
 parallel mapping         :  balanced
 number of threads        :         1
 parallel io              :       off

 options:
      boundary conditions  = periodic    (version3)
      electron spin        = unrestricted
      exchange-correlation = PBE96 (White and Bird) parameterization

 elements involved in the cluster:
      1: Tm  valence charge:23.0  core charge:46.0
             comment    : Parameterized Tm paw (4f5s5p5d5f6s6p projectors, 4/2/2022 by EJB)
             pseudpotential type            :   4
             loggrid parameter r0        : 0.200E-02
             loggrid parameter rmax      : 0.250E+02
             loggrid parameter npoints   :      3000
             augmentation sphere radius  :     2.392 ( 2254 npoints 2254 per task)
             compensation sigma          :     0.346
             total number of projectors  :        27
             n_ps (n) l          eig      #projector
                4 (4) f    -0.143264               7
                1 (5) s    -1.852144               1
                2 (5) p    -1.010203               3
                3 (5) d    -0.042324               5
                5 (5) f     1.000000               7
                2 (6) s    -0.143655               1
                3 (6) p    -0.046931               3


 total charge:   0.000

 atomic composition:
     Tm  :    1

 number of electrons: spin up=    12 (  12 per task)  down=    11 (  11 per task) (Fourier space)
 number of orbitals : spin up=    12 (  12 per task)  down=    11 (  11 per task) (Fourier space)

 supercell:
      cell_name:  cell_default                                      
      lattice:    a1=<  26.000   0.000   0.000 >
                  a2=<   0.000  26.000   0.000 >
                  a3=<   0.000   0.000  26.000 >
      reciprocal: b1=<   0.242   0.000   0.000 >
                  b2=<   0.000   0.242   0.000 >
                  b3=<   0.000   0.000   0.242 >
      lattice:    a=      26.000 b=     26.000 c=      26.000
                  alpha=  90.000 beta=  90.000 gamma=  90.000
                  omega=     17576.0

      density cutoff= 60.000  fft= 96x 96x 96(   195216 waves    32536 per task)
      wavefnc cutoff= 30.000  fft= 96x 96x 96(    69013 waves    11502 per task)
      paw integration: xc lmax=  0 compensation charge= two-electron Gaussian
      Ewald summation: cut radius=    8.28  and  1
                       Madelung Wigner-Seitz=    1.76011888 (alpha=    2.83729748 rs=16.12911276)

 technical parameters:
      time step=      1.00     fictitious mass=  400000.0
      tolerance=0.100E-06 (energy)   0.100E-06 (density)
      maximum iterations =      1000 (   10 inner    100 outer )





== Energy Calculation ==


          ============ Grassmann lmbfgs iteration ============
     >>>  ITERATION STARTED AT Wed Apr 12 18:17:38 2023  <<<
    iter.           Energy         DeltaE       DeltaRho 
    ------------------------------------------------------
      10   -0.4707504690E+03   -0.29330E-02    0.17483E+00
     -  10 steepest descent iterations performed
      20   -0.4707643443E+03   -0.69518E-03    0.41197E-03
      30   -0.4707693970E+03   -0.29695E-03    0.18480E-04
      40   -0.4707721685E+03   -0.23430E-03    0.65594E-04
      50   -0.4707771880E+03   -0.85252E-03    0.21581E-03
     -  10 steepest descent iterations performed
      60   -0.4708353319E+03   -0.11524E-01    0.74588E-02
     -  10 steepest descent iterations performed
      70   -0.4708936330E+03   -0.25362E-02    0.85585E-03
      80   -0.4709034435E+03   -0.33671E-03    0.40323E-03
      90   -0.4709047700E+03   -0.53883E-04    0.99255E-05
     100   -0.4709050623E+03   -0.17083E-04    0.15245E-04
     110   -0.4709051295E+03   -0.28555E-05    0.19283E-05
     120   -0.4709051497E+03   -0.11044E-05    0.10675E-05
     130   -0.4709051565E+03   -0.38900E-06    0.19469E-06
     140   -0.4709051580E+03   -0.48712E-07    0.19345E-07
  *** tolerance ok. iteration terminated
     >>>  ITERATION ENDED   AT Wed Apr 12 18:19:09 2023  <<<


==  Summary Of Results  ==

 number of electrons: spin up=   12.00000  down=   11.00000 (real space)
     plane-wave part:             7.58606           7.26960 (real space)
      augmented part:             4.41394           3.73040 (real space)

 total     energy    :  -0.4709051580E+03 (   -0.47091E+03/ion)

 total paw energy    :  -0.1359439688E+05 (   -0.13594E+05/ion)
 total orbital energy:  -0.1151690061E+02 (   -0.50073E+00/electron)
 hartree   energy    :   0.5127757708E+02 (    0.22295E+01/electron)
 exc-corr  energy    :  -0.8310026225E+01 (   -0.36131E+00/electron)
 ion-ion   energy    :  -0.2886404551E+02 (   -0.28864E+02/ion)

 kinetic (planewave) :   0.3831871586E+02 (    0.16660E+01/electron)
 V_local (planewave) :  -0.2041206701E+03 (   -0.88748E+01/electron)
 V_nl    (planewave) :  -0.1826836530E+02 (   -0.79428E+00/electron)
 V_Coul  (planewave) :   0.1025551542E+03 (    0.44589E+01/electron)
 V_xc.   (planewave) :  -0.1080062865E+02 (   -0.46959E+00/electron)
 Virial Coefficient  :  -0.3409156779E+01

 kinetic (loc. basis):   0.3687237569E+03 (    0.16031E+02/electron)
 kinetic       (core):   0.1336186692E+05 (    0.13362E+05/ion)
 valence-core        :  -0.1149007319E+03 (   -0.49957E+01/electron)
 ncmp*V_local        :  -0.4111862324E+03 (   -0.17878E+02/electron)
 V_lpaw  (loc. basis):  -0.1981433530E+02 (   -0.86149E+00/electron)
 coulomb (loc. basis):  -0.2134143794E+02 (   -0.92789E+00/electron)
 coulomb  (ncmp-ncmp):   0.7280874527E+02 (    0.31656E+01/electron)
 coulomb    (ncmp-pw):   0.8079889346E+02 (    0.35130E+01/electron)
 exc-cor (loc. basis):  -0.2742953672E+03 (   -0.11926E+02/electron)
 pxc-cor (loc. basis):  -0.2482433071E+02 (   -0.24824E+02/electron)
 ion-core            :  -0.2648535864E+05 (   -0.26485E+05/ion)

 orbital energies:
    -0.8919911E-01 (  -2.427eV)
    -0.8922011E-01 (  -2.428eV)    -0.6074609E-01 (  -1.653eV)
    -0.8938524E-01 (  -2.432eV)    -0.6078934E-01 (  -1.654eV)
    -0.9415381E-01 (  -2.562eV)    -0.6101510E-01 (  -1.660eV)
    -0.9431995E-01 (  -2.567eV)    -0.7038808E-01 (  -1.915eV)
    -0.9435621E-01 (  -2.568eV)    -0.7052555E-01 (  -1.919eV)
    -0.1343054E+00 (  -3.655eV)    -0.7066101E-01 (  -1.923eV)
    -0.1549432E+00 (  -4.216eV)    -0.1539313E+00 (  -4.189eV)
    -0.8804953E+00 ( -23.960eV)    -0.8695950E+00 ( -23.663eV)
    -0.8805374E+00 ( -23.961eV)    -0.8695992E+00 ( -23.663eV)
    -0.8805418E+00 ( -23.961eV)    -0.8696315E+00 ( -23.664eV)
    -0.2449406E+01 ( -66.652eV)    -0.2429155E+01 ( -66.101eV)

 Total PSPW energy     :  -0.4709051580E+03


=== Spin Contamination ===

 <Sexact^2> =   0.75000000000000000     
 <S^2>      =    5.6025169355539068     



== Center of Charge ==

spin up     (   -0.0000,    0.0000,    0.0000 )
spin down   (   -0.0000,   -0.0000,   -0.0000 )
     total  (   -0.0000,   -0.0000,   -0.0000 )
ionic       (    0.0000,    0.0000,    0.0000 )


== Molecular Dipole wrt Center of Mass ==

mu   =  (    0.0001,    0.0000,    0.0000 ) au
|mu| =     0.0001 au,       0.0003 Debye

 output psi filename:./perm/pspw-pbe-Tm1.movecs

 Writing Crystallographic Information File:./perm/Tm1.cif
   - cell not shifted (nwpw:cif_shift_cell .false.)


== Timing ==

cputime in seconds
  prologue    :   0.116973E+02
  main loop   :   0.903749E+02
  epilogue    :   0.257711E+00
  total       :   0.102330E+03
  cputime/step:   0.248967E+00       (     363 evalulations,     139 linesearches)


Time spent doing                        total          step       percent
  total time                 :   0.102332E+03  0.281907E+00       100.0 %
  i/o time                   :   0.109296E+02  0.301092E-01        10.7 %
  FFTs                       :   0.102931E+02  0.283557E-01        10.1 %
  dot products               :   0.218916E+02  0.603075E-01        21.4 %
  geodesic                   :   0.130475E+02  0.359436E-01        12.8 %
  ffm_dgemm                  :   0.749005E+00  0.206338E-02         0.7 %
  fmf_dgemm                  :   0.264273E+01  0.728025E-02         2.6 %
  mmm_dgemm                  :   0.239353E-01  0.659374E-04         0.0 %
  m_diagonalize              :   0.969984E-02  0.267213E-04         0.0 %
    - m_tredq                :   0.104038E+00  0.286606E-03         0.1 %
  exchange correlation       :   0.221261E+02  0.609534E-01        21.6 %
  local pseudopotentials     :   0.280400E-02  0.772452E-05         0.0 %
  non-local pseudopotentials :   0.205174E+02  0.565217E-01        20.0 %
  hartree potentials         :   0.124635E+00  0.343346E-03         0.1 %
  ion-ion interaction        :   0.152306E+01  0.419575E-02         1.5 %
  structure factors          :   0.849844E+00  0.234117E-02         0.8 %
  phase factors              :   0.399900E-05  0.110165E-07         0.0 %
  masking and packing        :   0.323266E+01  0.890539E-02         3.2 %
  queue fft                  :   0.233043E+02  0.641990E-01        22.8 %
  queue fft (serial)         :   0.909185E+01  0.250464E-01         8.9 %
  queue fft (message passing):   0.135795E+02  0.374092E-01        13.3 %
  paw gaussian integrals     :   0.584003E+00  0.160882E-02         0.6 %
  paw atomic coulomb         :   0.611813E+00  0.168544E-02         0.6 %
  paw atomic xc              :   0.307009E+01  0.845755E-02         3.0 %
  paw gen dEmult/dQlm        :   0.564534E-02  0.155519E-04         0.0 %
  paw gen dElocal/dQlm       :   0.185930E-01  0.512204E-04         0.0 %
  paw cmp operations         :   0.185930E-01  0.512204E-04         0.0 %
  nwpw_ugauss                :   0.100000E-08  0.275483E-11         0.0 %
  nwpw_wgauss                :   0.583607E+00  0.160773E-02         0.6 %
  nwpw_gaunt                 :   0.367927E+01  0.101357E-01         3.6 %
  non-local psp FFM          :   0.869284E+00  0.239472E-02         0.8 %
  non-local psp FMF          :   0.717739E+00  0.197724E-02         0.7 %
  non-local psp FFM A        :   0.135353E+00  0.372872E-03         0.1 %
  non-local psp FFM B        :   0.679771E+00  0.187265E-02         0.7 %

     >>>  JOB COMPLETED     AT Wed Apr 12 18:19:09 2023  <<<
          ****************************************************
          *                                                  *
          *               NWPW PSPW Calculation              *
          *                                                  *
          * [ (Grassmann/Stiefel manifold implementation)  ] *
          *                                                  *
          *      [ NorthWest Chemistry implementation ]      *
          *                                                  *
          *            version #5.10   06/12/02              *
          *                                                  *
          *    This code was developed by Eric J. Bylaska,   *
          *    and was based upon algorithms and code        *
          *    developed by the group of Prof. John H. Weare *
          *                                                  *
          ****************************************************
     >>>  JOB STARTED       AT Wed Apr 12 18:19:09 2023  <<<
          ================ input data ========================
 pseudopotential is not correctly formatted:Tm.vpp                                            

 Generated formatted_filename: ./perm/Tm.vpp
 - filtering pseudopotential -
 Error reading psi - bad grid
 nfft :                   96                   96                   96
 ngrid:                  112                  112                  112
 Error reading psi - bad grid
 nfft :                   96                   96                   96
 ngrid:                  112                  112                  112
 Error reading psi - bad grid

 Grid is being converted:
 ------------------------

 To turn off automatic grid conversion:

 set nwpw:psi_nogrid .false.

 old_filename: pspw-pbe-Tm1.movecs                               
 new_filename: pspw-pbe-Tm1.movecs                               
 converting  :  96x 96x 96 --> 112x112x112
converting .... psi:    1 spin: 1
converting .... psi:    2 spin: 1
converting .... psi:    3 spin: 1
converting .... psi:    4 spin: 1
converting .... psi:    5 spin: 1
converting .... psi:    6 spin: 1
converting .... psi:    7 spin: 1
converting .... psi:    8 spin: 1
converting .... psi:    9 spin: 1
converting .... psi:   10 spin: 1
converting .... psi:   11 spin: 1
converting .... psi:   12 spin: 1
converting .... psi:    1 spin: 2
converting .... psi:    2 spin: 2
converting .... psi:    3 spin: 2
converting .... psi:    4 spin: 2
converting .... psi:    5 spin: 2
converting .... psi:    6 spin: 2
converting .... psi:    7 spin: 2
converting .... psi:    8 spin: 2
converting .... psi:    9 spin: 2
converting .... psi:   10 spin: 2
converting .... psi:   11 spin: 2

 input psi filename:./perm/pspw-pbe-Tm1.movecs

 Warning - K.S. orbitals are not orthonormal. Applying Gram-Schmidt orthonormalization.
         - exact norm=0.230000E+02 norm=0.230000E+02 corrected norm=0.230000E+02 (error=0.133752E-04)


 number of processors used:         6
 processor grid           :   6 x   1
 parallel mapping         : 2d-hcurve
 parallel mapping         :  balanced
 number of threads        :         1
 parallel io              :       off

 options:
      boundary conditions  = periodic    (version3)
      electron spin        = unrestricted
      exchange-correlation = PBE96 (White and Bird) parameterization

 elements involved in the cluster:
      1: Tm  valence charge:23.0  core charge:46.0
             comment    : Parameterized Tm paw (4f5s5p5d5f6s6p projectors, 4/2/2022 by EJB)
             pseudpotential type            :   4
             loggrid parameter r0        : 0.200E-02
             loggrid parameter rmax      : 0.250E+02
             loggrid parameter npoints   :      3000
             augmentation sphere radius  :     2.392 ( 2254 npoints 2254 per task)
             compensation sigma          :     0.346
             total number of projectors  :        27
             n_ps (n) l          eig      #projector
                4 (4) f    -0.143264               7
                1 (5) s    -1.852144               1
                2 (5) p    -1.010203               3
                3 (5) d    -0.042324               5
                5 (5) f     1.000000               7
                2 (6) s    -0.143655               1
                3 (6) p    -0.046931               3


 total charge:   0.000

 atomic composition:
     Tm  :    1

 number of electrons: spin up=    12 (  12 per task)  down=    11 (  11 per task) (Fourier space)
 number of orbitals : spin up=    12 (  12 per task)  down=    11 (  11 per task) (Fourier space)

 supercell:
      cell_name:  cell_default                                      
      lattice:    a1=<  26.000   0.000   0.000 >
                  a2=<   0.000  26.000   0.000 >
                  a3=<   0.000   0.000  26.000 >
      reciprocal: b1=<   0.242   0.000   0.000 >
                  b2=<   0.000   0.242   0.000 >
                  b3=<   0.000   0.000   0.242 >
      lattice:    a=      26.000 b=     26.000 c=      26.000
                  alpha=  90.000 beta=  90.000 gamma=  90.000
                  omega=     17576.0

      density cutoff= 90.000  fft=112x112x112(   358500 waves    59750 per task)
      wavefnc cutoff= 45.000  fft=112x112x112(   126824 waves    21137 per task)
      paw integration: xc lmax=  0 compensation charge= two-electron Gaussian
      Ewald summation: cut radius=    8.28  and  1
                       Madelung Wigner-Seitz=    1.76011888 (alpha=    2.83729748 rs=16.12911276)

 technical parameters:
      time step=      1.00     fictitious mass=  400000.0
      tolerance=0.100E-06 (energy)   0.100E-06 (density)
      maximum iterations =      1000 (   10 inner    100 outer )





== Energy Calculation ==


          ============ Grassmann lmbfgs iteration ============
     >>>  ITERATION STARTED AT Wed Apr 12 18:19:24 2023  <<<
    iter.           Energy         DeltaE       DeltaRho 
    ------------------------------------------------------
      10   -0.4709462722E+03   -0.97903E-05    0.43370E-03
      20   -0.4709463074E+03   -0.83149E-06    0.65296E-06
      30   -0.4709463106E+03   -0.14426E-06    0.17140E-07
      40   -0.4709463109E+03   -0.90063E-07    0.64621E-09
  *** tolerance ok. iteration terminated
     >>>  ITERATION ENDED   AT Wed Apr 12 18:20:05 2023  <<<


==  Summary Of Results  ==

 number of electrons: spin up=   12.00000  down=   11.00000 (real space)
     plane-wave part:             7.58440           7.26955 (real space)
      augmented part:             4.41560           3.73045 (real space)

 total     energy    :  -0.4709463109E+03 (   -0.47095E+03/ion)

 total paw energy    :  -0.1359443803E+05 (   -0.13594E+05/ion)
 total orbital energy:  -0.1140982150E+02 (   -0.49608E+00/electron)
 hartree   energy    :   0.5130713025E+02 (    0.22307E+01/electron)
 exc-corr  energy    :  -0.8309836327E+01 (   -0.36130E+00/electron)
 ion-ion   energy    :  -0.2886404551E+02 (   -0.28864E+02/ion)

 kinetic (planewave) :   0.3836006325E+02 (    0.16678E+01/electron)
 V_local (planewave) :  -0.2041688608E+03 (   -0.88769E+01/electron)
 V_nl    (planewave) :  -0.1822370464E+02 (   -0.79233E+00/electron)
 V_Coul  (planewave) :   0.1026142605E+03 (    0.44615E+01/electron)
 V_xc.   (planewave) :  -0.1079955592E+02 (   -0.46955E+00/electron)
 Virial Coefficient  :  -0.3404005359E+01

 kinetic (loc. basis):   0.3689916999E+03 (    0.16043E+02/electron)
 kinetic       (core):   0.1336186692E+05 (    0.13362E+05/ion)
 valence-core        :  -0.1149683856E+03 (   -0.49986E+01/electron)
 ncmp*V_local        :  -0.4112724869E+03 (   -0.17881E+02/electron)
 V_lpaw  (loc. basis):  -0.2008856279E+02 (   -0.87342E+00/electron)
 coulomb (loc. basis):  -0.2126302289E+02 (   -0.92448E+00/electron)
 coulomb  (ncmp-ncmp):   0.7283914059E+02 (    0.31669E+01/electron)
 coulomb    (ncmp-pw):   0.8080797613E+02 (    0.35134E+01/electron)
 exc-cor (loc. basis):  -0.2743171201E+03 (   -0.11927E+02/electron)
 pxc-cor (loc. basis):  -0.2484618078E+02 (   -0.24846E+02/electron)
 ion-core            :  -0.2648535864E+05 (   -0.26485E+05/ion)

 orbital energies:
    -0.8376317E-01 (  -2.279eV)
    -0.8377253E-01 (  -2.280eV)    -0.5569455E-01 (  -1.516eV)
    -0.8377712E-01 (  -2.280eV)    -0.5570575E-01 (  -1.516eV)
    -0.8884258E-01 (  -2.418eV)    -0.5571313E-01 (  -1.516eV)
    -0.8884745E-01 (  -2.418eV)    -0.6403274E-01 (  -1.742eV)
    -0.8885429E-01 (  -2.418eV)    -0.6404204E-01 (  -1.743eV)
    -0.1290089E+00 (  -3.511eV)    -0.6405990E-01 (  -1.743eV)
    -0.1528020E+00 (  -4.158eV)    -0.1517917E+00 (  -4.130eV)
    -0.8774013E+00 ( -23.875eV)    -0.8666977E+00 ( -23.584eV)
    -0.8774089E+00 ( -23.876eV)    -0.8667014E+00 ( -23.584eV)
    -0.8774104E+00 ( -23.876eV)    -0.8667043E+00 ( -23.584eV)
    -0.2443480E+01 ( -66.491eV)    -0.2423310E+01 ( -65.942eV)

 Total PSPW energy     :  -0.4709463109E+03


=== Spin Contamination ===

 <Sexact^2> =   0.75000000000000000     
 <S^2>      =    5.6028709509625960     



== Center of Charge ==

spin up     (    0.0000,    0.0000,    0.0000 )
spin down   (   -0.0000,   -0.0000,   -0.0000 )
     total  (   -0.0000,   -0.0000,   -0.0000 )
ionic       (    0.0000,    0.0000,    0.0000 )


== Molecular Dipole wrt Center of Mass ==

mu   =  (    0.0000,    0.0000,    0.0000 ) au
|mu| =     0.0000 au,       0.0000 Debye

 output psi filename:./perm/pspw-pbe-Tm1.movecs

 Writing Crystallographic Information File:./perm/Tm1.cif
   - cell not shifted (nwpw:cif_shift_cell .false.)


== Timing ==

cputime in seconds
  prologue    :   0.149704E+02
  main loop   :   0.413480E+02
  epilogue    :   0.401283E+00
  total       :   0.567197E+02
  cputime/step:   0.475264E+00       (      87 evalulations,      32 linesearches)


Time spent doing                        total          step       percent
  total time                 :   0.567221E+02  0.651978E+00       100.0 %
  i/o time                   :   0.140852E+02  0.161898E+00        24.8 %
  FFTs                       :   0.515774E+01  0.592843E-01         9.1 %
  dot products               :   0.108920E+02  0.125195E+00        19.2 %
  geodesic                   :   0.624787E+01  0.718146E-01        11.0 %
  ffm_dgemm                  :   0.289667E+00  0.332951E-02         0.5 %
  fmf_dgemm                  :   0.107058E+01  0.123055E-01         1.9 %
  mmm_dgemm                  :   0.103300E-01  0.118736E-03         0.0 %
  m_diagonalize              :   0.172897E-02  0.198733E-04         0.0 %
    - m_tredq                :   0.260430E-01  0.299345E-03         0.0 %
  exchange correlation       :   0.953304E+01  0.109575E+00        16.8 %
  local pseudopotentials     :   0.271200E-02  0.311724E-04         0.0 %
  non-local pseudopotentials :   0.919100E+01  0.105644E+00        16.2 %
  hartree potentials         :   0.560639E-01  0.644413E-03         0.1 %
  ion-ion interaction        :   0.366617E+00  0.421399E-02         0.6 %
  structure factors          :   0.438546E+00  0.504076E-02         0.8 %
  phase factors              :   0.399900E-05  0.459655E-07         0.0 %
  masking and packing        :   0.133545E+01  0.153500E-01         2.4 %
  queue fft                  :   0.114146E+02  0.131203E+00        20.1 %
  queue fft (serial)         :   0.565716E+01  0.650248E-01        10.0 %
  queue fft (message passing):   0.549666E+01  0.631800E-01         9.7 %
  paw gaussian integrals     :   0.588791E+00  0.676771E-02         1.0 %
  paw atomic coulomb         :   0.146506E+00  0.168398E-02         0.3 %
  paw atomic xc              :   0.748623E+00  0.860486E-02         1.3 %
  paw gen dEmult/dQlm        :   0.160108E-02  0.184033E-04         0.0 %
  paw gen dElocal/dQlm       :   0.355340E-01  0.408437E-03         0.1 %
  paw cmp operations         :   0.355340E-01  0.408437E-03         0.1 %
  nwpw_ugauss                :   0.100200E-05  0.115172E-07         0.0 %
  nwpw_wgauss                :   0.588406E+00  0.676329E-02         1.0 %
  nwpw_gaunt                 :   0.436376E+01  0.501582E-01         7.7 %
  non-local psp FFM          :   0.389826E+00  0.448076E-02         0.7 %
  non-local psp FMF          :   0.311357E+00  0.357882E-02         0.5 %
  non-local psp FFM A        :   0.599149E-01  0.688677E-03         0.1 %
  non-local psp FFM B        :   0.312229E+00  0.358884E-02         0.6 %

     >>>  JOB COMPLETED     AT Wed Apr 12 18:20:06 2023  <<<
          ****************************************************
          *                                                  *
          *               NWPW PSPW Calculation              *
          *                                                  *
          * [ (Grassmann/Stiefel manifold implementation)  ] *
          *                                                  *
          *      [ NorthWest Chemistry implementation ]      *
          *                                                  *
          *            version #5.10   06/12/02              *
          *                                                  *
          *    This code was developed by Eric J. Bylaska,   *
          *    and was based upon algorithms and code        *
          *    developed by the group of Prof. John H. Weare *
          *                                                  *
          ****************************************************
     >>>  JOB STARTED       AT Wed Apr 12 18:20:06 2023  <<<
          ================ input data ========================
 pseudopotential is not correctly formatted:Tm.vpp                                            

 Generated formatted_filename: ./perm/Tm.vpp
 - filtering pseudopotential -
 Error reading psi - bad grid
 nfft :                  112                  112                  112
 ngrid:                  140                  140                  140
 Error reading psi - bad grid
 nfft :                  112                  112                  112
 ngrid:                  140                  140                  140
 Error reading psi - bad grid

 Grid is being converted:
 ------------------------

 To turn off automatic grid conversion:

 set nwpw:psi_nogrid .false.

 old_filename: pspw-pbe-Tm1.movecs                               
 new_filename: pspw-pbe-Tm1.movecs                               
 converting  : 112x112x112 --> 140x140x140
converting .... psi:    1 spin: 1
converting .... psi:    2 spin: 1
converting .... psi:    3 spin: 1
converting .... psi:    4 spin: 1
converting .... psi:    5 spin: 1
converting .... psi:    6 spin: 1
converting .... psi:    7 spin: 1
converting .... psi:    8 spin: 1
converting .... psi:    9 spin: 1
converting .... psi:   10 spin: 1
converting .... psi:   11 spin: 1
converting .... psi:   12 spin: 1
converting .... psi:    1 spin: 2
converting .... psi:    2 spin: 2
converting .... psi:    3 spin: 2
converting .... psi:    4 spin: 2
converting .... psi:    5 spin: 2
converting .... psi:    6 spin: 2
converting .... psi:    7 spin: 2
converting .... psi:    8 spin: 2
converting .... psi:    9 spin: 2
converting .... psi:   10 spin: 2
converting .... psi:   11 spin: 2

 input psi filename:./perm/pspw-pbe-Tm1.movecs

 Warning - K.S. orbitals are not orthonormal. Applying Gram-Schmidt orthonormalization.
         - exact norm=0.230000E+02 norm=0.230000E+02 corrected norm=0.230000E+02 (error=0.665189E-06)


 number of processors used:         6
 processor grid           :   6 x   1
 parallel mapping         : 2d-hcurve
 parallel mapping         :  balanced
 number of threads        :         1
 parallel io              :       off

 options:
      boundary conditions  = periodic    (version3)
      electron spin        = unrestricted
      exchange-correlation = PBE96 (White and Bird) parameterization

 elements involved in the cluster:
      1: Tm  valence charge:23.0  core charge:46.0
             comment    : Parameterized Tm paw (4f5s5p5d5f6s6p projectors, 4/2/2022 by EJB)
             pseudpotential type            :   4
             loggrid parameter r0        : 0.200E-02
             loggrid parameter rmax      : 0.250E+02
             loggrid parameter npoints   :      3000
             augmentation sphere radius  :     2.392 ( 2254 npoints 2254 per task)
             compensation sigma          :     0.346
             total number of projectors  :        27
             n_ps (n) l          eig      #projector
                4 (4) f    -0.143264               7
                1 (5) s    -1.852144               1
                2 (5) p    -1.010203               3
                3 (5) d    -0.042324               5
                5 (5) f     1.000000               7
                2 (6) s    -0.143655               1
                3 (6) p    -0.046931               3


 total charge:   0.000

 atomic composition:
     Tm  :    1

 number of electrons: spin up=    12 (  12 per task)  down=    11 (  11 per task) (Fourier space)
 number of orbitals : spin up=    12 (  12 per task)  down=    11 (  11 per task) (Fourier space)

 supercell:
      cell_name:  cell_default                                      
      lattice:    a1=<  26.000   0.000   0.000 >
                  a2=<   0.000  26.000   0.000 >
                  a3=<   0.000   0.000  26.000 >
      reciprocal: b1=<   0.242   0.000   0.000 >
                  b2=<   0.000   0.242   0.000 >
                  b3=<   0.000   0.000   0.242 >
      lattice:    a=      26.000 b=     26.000 c=      26.000
                  alpha=  90.000 beta=  90.000 gamma=  90.000
                  omega=     17576.0

      density cutoff=120.000  fft=140x140x140(   551891 waves    91981 per task)
      wavefnc cutoff= 60.000  fft=140x140x140(   195216 waves    32536 per task)
      paw integration: xc lmax=  0 compensation charge= two-electron Gaussian
      Ewald summation: cut radius=    8.28  and  1
                       Madelung Wigner-Seitz=    1.76011888 (alpha=    2.83729748 rs=16.12911276)

 technical parameters:
      time step=      1.00     fictitious mass=  400000.0
      tolerance=0.100E-06 (energy)   0.100E-06 (density)
      maximum iterations =      1000 (   10 inner    100 outer )





== Energy Calculation ==


          ============ Grassmann lmbfgs iteration ============
     >>>  ITERATION STARTED AT Wed Apr 12 18:20:26 2023  <<<
    iter.           Energy         DeltaE       DeltaRho 
    ------------------------------------------------------
      10   -0.4709786769E+03   -0.15826E-06    0.34203E-03
      20   -0.4709786772E+03   -0.80243E-07    0.95021E-08
  *** tolerance ok. iteration terminated
     >>>  ITERATION ENDED   AT Wed Apr 12 18:20:56 2023  <<<


==  Summary Of Results  ==

 number of electrons: spin up=   12.00000  down=   11.00000 (real space)
     plane-wave part:             7.57459           7.26118 (real space)
      augmented part:             4.42541           3.73882 (real space)

 total     energy    :  -0.4709786772E+03 (   -0.47098E+03/ion)

 total paw energy    :  -0.1359447040E+05 (   -0.13594E+05/ion)
 total orbital energy:  -0.1140759670E+02 (   -0.49598E+00/electron)
 hartree   energy    :   0.5115462631E+02 (    0.22241E+01/electron)
 exc-corr  energy    :  -0.8294309324E+01 (   -0.36062E+00/electron)
 ion-ion   energy    :  -0.2886404551E+02 (   -0.28864E+02/ion)

 kinetic (planewave) :   0.3827997790E+02 (    0.16643E+01/electron)
 V_local (planewave) :  -0.2038321817E+03 (   -0.88623E+01/electron)
 V_nl    (planewave) :  -0.1821590557E+02 (   -0.79200E+00/electron)
 V_Coul  (planewave) :   0.1023092526E+03 (    0.44482E+01/electron)
 V_xc.   (planewave) :  -0.1077921519E+02 (   -0.46866E+00/electron)
 Virial Coefficient  :  -0.3409564400E+01

 kinetic (loc. basis):   0.3691616445E+03 (    0.16051E+02/electron)
 kinetic       (core):   0.1336186692E+05 (    0.13362E+05/ion)
 valence-core        :  -0.1149705244E+03 (   -0.49987E+01/electron)
 ncmp*V_local        :  -0.4121907510E+03 (   -0.17921E+02/electron)
 V_lpaw  (loc. basis):  -0.1964996735E+02 (   -0.85435E+00/electron)
 coulomb (loc. basis):  -0.2142382682E+02 (   -0.93147E+00/electron)
 coulomb  (ncmp-ncmp):   0.7316488524E+02 (    0.31811E+01/electron)
 coulomb    (ncmp-pw):   0.8083047529E+02 (    0.35144E+01/electron)
 exc-cor (loc. basis):  -0.2743446802E+03 (   -0.11928E+02/electron)
 pxc-cor (loc. basis):  -0.2487889941E+02 (   -0.24879E+02/electron)
 ion-core            :  -0.2648535864E+05 (   -0.26485E+05/ion)

 orbital energies:
    -0.8449176E-01 (  -2.299eV)
    -0.8449369E-01 (  -2.299eV)    -0.5636290E-01 (  -1.534eV)
    -0.8449458E-01 (  -2.299eV)    -0.5636569E-01 (  -1.534eV)
    -0.8956853E-01 (  -2.437eV)    -0.5636832E-01 (  -1.534eV)
    -0.8957143E-01 (  -2.437eV)    -0.6471175E-01 (  -1.761eV)
    -0.8957603E-01 (  -2.438eV)    -0.6471719E-01 (  -1.761eV)
    -0.1297655E+00 (  -3.531eV)    -0.6472398E-01 (  -1.761eV)
    -0.1525906E+00 (  -4.152eV)    -0.1515857E+00 (  -4.125eV)
    -0.8765753E+00 ( -23.853eV)    -0.8659136E+00 ( -23.563eV)
    -0.8765811E+00 ( -23.853eV)    -0.8659156E+00 ( -23.563eV)
    -0.8765830E+00 ( -23.853eV)    -0.8659178E+00 ( -23.563eV)
    -0.2440392E+01 ( -66.407eV)    -0.2420331E+01 ( -65.861eV)

 Total PSPW energy     :  -0.4709786772E+03


=== Spin Contamination ===

 <Sexact^2> =   0.75000000000000000     
 <S^2>      =    5.6095289520227860     



== Center of Charge ==

spin up     (    0.0000,    0.0000,    0.0000 )
spin down   (   -0.0000,   -0.0000,   -0.0000 )
     total  (   -0.0000,   -0.0000,   -0.0000 )
ionic       (    0.0000,    0.0000,    0.0000 )


== Molecular Dipole wrt Center of Mass ==

mu   =  (    0.0000,    0.0000,    0.0000 ) au
|mu| =     0.0000 au,       0.0000 Debye

 output psi filename:./perm/pspw-pbe-Tm1.movecs

 Writing Crystallographic Information File:./perm/Tm1.cif
   - cell not shifted (nwpw:cif_shift_cell .false.)


== Timing ==

cputime in seconds
  prologue    :   0.198018E+02
  main loop   :   0.303380E+02
  epilogue    :   0.715113E+00
  total       :   0.508549E+02
  cputime/step:   0.892295E+00       (      34 evalulations,      13 linesearches)


Time spent doing                        total          step       percent
  total time                 :   0.508572E+02  0.149580E+01       100.0 %
  i/o time                   :   0.185698E+02  0.546171E+00        36.5 %
  FFTs                       :   0.430225E+01  0.126537E+00         8.5 %
  dot products               :   0.730512E+01  0.214856E+00        14.4 %
  geodesic                   :   0.385431E+01  0.113362E+00         7.6 %
  ffm_dgemm                  :   0.181430E+00  0.533618E-02         0.4 %
  fmf_dgemm                  :   0.688083E+00  0.202377E-01         1.4 %
  mmm_dgemm                  :   0.225700E-02  0.663824E-04         0.0 %
  m_diagonalize              :   0.749987E-03  0.220584E-04         0.0 %
    - m_tredq                :   0.101940E-01  0.299824E-03         0.0 %
  exchange correlation       :   0.768664E+01  0.226078E+00        15.1 %
  local pseudopotentials     :   0.249200E-02  0.732941E-04         0.0 %
  non-local pseudopotentials :   0.597627E+01  0.175773E+00        11.8 %
  hartree potentials         :   0.370250E-01  0.108897E-02         0.1 %
  ion-ion interaction        :   0.145512E+00  0.427976E-02         0.3 %
  structure factors          :   0.265980E+00  0.782294E-02         0.5 %
  phase factors              :   0.299900E-05  0.882059E-07         0.0 %
  masking and packing        :   0.100673E+01  0.296097E-01         2.0 %
  queue fft                  :   0.890807E+01  0.262002E+00        17.5 %
  queue fft (serial)         :   0.434018E+01  0.127652E+00         8.5 %
  queue fft (message passing):   0.437320E+01  0.128623E+00         8.6 %
  paw gaussian integrals     :   0.580505E+00  0.170737E-01         1.1 %
  paw atomic coulomb         :   0.573020E-01  0.168535E-02         0.1 %
  paw atomic xc              :   0.295355E+00  0.868691E-02         0.6 %
  paw gen dEmult/dQlm        :   0.821033E-03  0.241480E-04         0.0 %
  paw gen dElocal/dQlm       :   0.551700E-01  0.162265E-02         0.1 %
  paw cmp operations         :   0.551700E-01  0.162265E-02         0.1 %
  nwpw_ugauss                :   0.100300E-05  0.295000E-07         0.0 %
  nwpw_wgauss                :   0.580212E+00  0.170651E-01         1.1 %
  nwpw_gaunt                 :   0.420238E+01  0.123599E+00         8.3 %
  non-local psp FFM          :   0.238475E+00  0.701397E-02         0.5 %
  non-local psp FMF          :   0.209692E+00  0.616741E-02         0.4 %
  non-local psp FFM A        :   0.353250E-01  0.103897E-02         0.1 %
  non-local psp FFM B        :   0.189262E+00  0.556653E-02         0.4 %

     >>>  JOB COMPLETED     AT Wed Apr 12 18:20:57 2023  <<<

 Task  times  cpu:      266.0s     wall:      266.0s


                                NWChem Input Module
                                -------------------


 >>>> PSPW Parallel Module - pspw_dplot <<<<
          ****************************************************
          *                                                  *
          *                   pspw DPLOT                     *
          *                                                  *
          *    [ Generates density and orbital grids  ]      *
          *                                                  *
          *     [ NorthWest Chemistry implementation ]       *
          *                                                  *
          *            version #1.00   08/22/01              *
          *                                                  *
          ****************************************************

     >>>  JOB STARTED       AT Wed Apr 12 18:20:57 2023  <<<
          ============ PSPW DPLOT input data =================

 input psi filename:./perm/pspw-pbe-Tm1.movecs

 number of processors used:  6
 parallel mapping         : 2d hcurve
 parallel mapping         :  balanced

 options:
      boundary conditions   = periodic    (version3)

 number of electrons: spin up= 12  spin down= 11 ( Fourier space)

 ncell              =  0 0 0

 position tolerance = 0.100000E-02

           origin=<   0.000   0.000   0.000 >

 supercell:
      lattice: a1=<  26.000   0.000   0.000 >
               a2=<   0.000  26.000   0.000 >
               a3=<   0.000   0.000  26.000 >
               b1=<   0.242   0.000   0.000 >
               b2=<   0.000   0.242   0.000 >
               b3=<   0.000   0.000   0.242 >
      volume :    17576.0
      density cutoff=120.000  fft=140x140x140(   551891 waves    91981 per task)
      wavefnc cutoff= 60.000  fft=140x140x140(   195216 waves    32536 per task)


    writing orbital                     1  to filename: tm1-orb01.cube
    writing orbital                     2  to filename: tm1-orb02.cube
    writing orbital                     3  to filename: tm1-orb03.cube
    writing orbital                     4  to filename: tm1-orb04.cube
    writing orbital                     5  to filename: tm1-orb05.cube
    writing orbital                     6  to filename: tm1-orb06.cube
    writing orbital                     7  to filename: tm1-orb07.cube
    writing orbital                     8  to filename: tm1-orb08.cube
    writing orbital                     9  to filename: tm1-orb09.cube
    writing orbital                    10  to filename: tm1-orb10.cube
    writing orbital                    11  to filename: tm1-orb11.cube
    writing orbital                    12  to filename: tm1-orb12.cube
    writing orbital                    13  to filename: tm1-orb13.cube
    writing orbital                    14  to filename: tm1-orb14.cube
    writing orbital                    15  to filename: tm1-orb15.cube
    writing orbital                    16  to filename: tm1-orb16.cube
    writing orbital                    17  to filename: tm1-orb17.cube
    writing orbital                    18  to filename: tm1-orb18.cube
    writing orbital                    19  to filename: tm1-orb19.cube
    writing orbital                    20  to filename: tm1-orb20.cube
    writing orbital                    21  to filename: tm1-orb21.cube
    writing orbital                    22  to filename: tm1-orb22.cube
    writing orbital                    23  to filename: tm1-orb23.cube

 Writing Crystallographic Information File:./perm/Tm1.cif
   - cell not shifted (nwpw:cif_shift_cell .false.)

 -----------------
 cputime in seconds
 total       :    41.444414999999992     

     >>>  JOB COMPLETED     AT Wed Apr 12 18:21:38 2023  <<<

 Task  times  cpu:       41.4s     wall:       41.4s


                                NWChem Input Module
                                -------------------


 Summary of allocated global arrays
-----------------------------------
  No active global arrays


MA_summarize_allocated_blocks: starting scan ...
MA_summarize_allocated_blocks: scan completed: 0 heap blocks, 0 stack blocks
MA usage statistics:

	allocation statistics:
					      heap	     stack
					      ----	     -----
	current number of blocks	         0	         0
	maximum number of blocks	       380	        21
	current total bytes		         0	         0
	maximum total bytes		 573567344	 306153448
	maximum total K-bytes		    573568	    306154
	maximum total M-bytes		       574	       307


                                     CITATION
                                     --------
                Please cite the following reference when publishing
                           results obtained with NWChem:

          E. Apra, E. J. Bylaska, W. A. de Jong, N. Govind, K. Kowalski,
       T. P. Straatsma, M. Valiev, H. J. J. van Dam, Y. Alexeev, J. Anchell,
       V. Anisimov, F. W. Aquino, R. Atta-Fynn, J. Autschbach, N. P. Bauman,
     J. C. Becca, D. E. Bernholdt, K. Bhaskaran-Nair, S. Bogatko, P. Borowski,
         J. Boschen, J. Brabec, A. Bruner, E. Cauet, Y. Chen, G. N. Chuev,
      C. J. Cramer, J. Daily, M. J. O. Deegan, T. H. Dunning Jr., M. Dupuis,
   K. G. Dyall, G. I. Fann, S. A. Fischer, A. Fonari, H. Fruchtl, L. Gagliardi,
      J. Garza, N. Gawande, S. Ghosh, K. Glaesemann, A. W. Gotz, J. Hammond,
       V. Helms, E. D. Hermes, K. Hirao, S. Hirata, M. Jacquelin, L. Jensen,
   B. G. Johnson, H. Jonsson, R. A. Kendall, M. Klemm, R. Kobayashi, V. Konkov,
      S. Krishnamoorthy, M. Krishnan, Z. Lin, R. D. Lins, R. J. Littlefield,
      A. J. Logsdail, K. Lopata, W. Ma, A. V. Marenich, J. Martin del Campo,
   D. Mejia-Rodriguez, J. E. Moore, J. M. Mullin, T. Nakajima, D. R. Nascimento,
    J. A. Nichols, P. J. Nichols, J. Nieplocha, A. Otero-de-la-Roza, B. Palmer,
    A. Panyala, T. Pirojsirikul, B. Peng, R. Peverati, J. Pittner, L. Pollack,
   R. M. Richard, P. Sadayappan, G. C. Schatz, W. A. Shelton, D. W. Silverstein,
   D. M. A. Smith, T. A. Soares, D. Song, M. Swart, H. L. Taylor, G. S. Thomas,
            V. Tipparaju, D. G. Truhlar, K. Tsemekhman, T. Van Voorhis,
      A. Vazquez-Mayagoitia, P. Verma, O. Villa, A. Vishnu, K. D. Vogiatzis,
        D. Wang, J. H. Weare, M. J. Williamson, T. L. Windus, K. Wolinski,
        A. T. Wong, Q. Wu, C. Yang, Q. Yu, M. Zacharias, Z. Zhang, Y. Zhao,
                                and R. J. Harrison
                        "NWChem: Past, present, and future
                         J. Chem. Phys. 152, 184102 (2020)
                               doi:10.1063/5.0004997

                                      AUTHORS
                                      -------
  E. Apra, E. J. Bylaska, N. Govind, K. Kowalski, M. Valiev, D. Mejia-Rodriguez,
       A. Kunitsa, N. P. Bauman, A. Panyala, W. A. de Jong, T. P. Straatsma,
   H. J. J. van Dam, D. Wang, T. L. Windus, J. Hammond, J. Autschbach, A. Woods,
    K. Bhaskaran-Nair, J. Brabec, K. Lopata, S. A. Fischer, S. Krishnamoorthy,
     M. Jacquelin, W. Ma, M. Klemm, O. Villa, Y. Chen, V. Anisimov, F. Aquino,
     S. Hirata, M. T. Hackler, E. Hermes, L. Jensen, J. E. Moore, J. C. Becca,
      V. Konjkov, T. Risthaus, M. Malagoli, A. Marenich, A. Otero-de-la-Roza,
        J. Mullin, P. Nichols, R. Peverati, J. Pittner, Y. Zhao, P.-D. Fan,
        A. Fonari, M. J. Williamson, R. J. Harrison, J. R. Rehr, M. Dupuis,
     D. Silverstein, D. M. A. Smith, J. Nieplocha, V. Tipparaju, M. Krishnan,
     B. E. Van Kuiken, A. Vazquez-Mayagoitia, M. Swart, Q. Wu, T. Van Voorhis,
     A. A. Auer, M. Nooijen, L. D. Crosby, E. Brown, G. Cisneros, G. I. Fann,
   H. Fruchtl, J. Garza, K. Hirao, R. A. Kendall, J. A. Nichols, K. Tsemekhman,
    K. Wolinski, J. Anchell, D. E. Bernholdt, P. Borowski, T. Clark, D. Clerc,
   H. Dachsel, M. J. O. Deegan, K. Dyall, D. Elwood, E. Glendening, M. Gutowski,
   A. C. Hess, J. Jaffe, B. G. Johnson, J. Ju, R. Kobayashi, R. Kutteh, Z. Lin,
   R. Littlefield, X. Long, B. Meng, T. Nakajima, S. Niu, L. Pollack, M. Rosing,
   K. Glaesemann, G. Sandrone, M. Stave, H. Taylor, G. Thomas, J. H. van Lenthe,
                               A. T. Wong, Z. Zhang.

 Total times  cpu:      307.4s     wall:      307.4s
