 argument  1 = Gd1.nw



============================== echo of input deck ==============================
title "swnc: e theory=pspw xc=pbe formula=H130O65gd1 charge=0 mult=3"
#machinejob:expert

permanent_dir ./perm
scratch_dir   ./perm

echo

start pspw-pbe-Gd1

memory 2300 mb

charge 0

geometry
Gd 0.0 0.0 0.0
end


nwpw
  simulation_cell
     SC 26.0
     #boundary_conditions aperiodic
  end

  ### pseudopotential block begin ###
  ### pseudopotential block end   ###
  2d-hcurve
  time_step 1.0
  cutoff 70.0
  lmbfgs

  mult 11
  xc pbe96

end
set nwpw:kbpp_ray    .true.
set nwpw:kbpp_filter .true.
#set nwpw:gram-schmidt .true.
set nwpw:cif_filename Gd1

#task pspw steepest_descent
task pspw energy ignore

================================================================================


                                         
                                         


             Northwest Computational Chemistry Package (NWChem) 7.2.0
             --------------------------------------------------------


                    Environmental Molecular Sciences Laboratory
                       Pacific Northwest National Laboratory
                                Richland, WA 99352

                              Copyright (c) 1994-2022
                       Pacific Northwest National Laboratory
                            Battelle Memorial Institute

             NWChem is an open-source computational chemistry package
                        distributed under the terms of the
                      Educational Community License (ECL) 2.0
             A copy of the license is included with this distribution
                              in the LICENSE.TXT file

                                  ACKNOWLEDGMENT
                                  --------------

            This software and its documentation were developed at the
            EMSL at Pacific Northwest National Laboratory, a multiprogram
            national laboratory, operated for the U.S. Department of Energy
            by Battelle under Contract Number DE-AC05-76RL01830. Support
            for this work was provided by the Department of Energy Office
            of Biological and Environmental Research, Office of Basic
            Energy Sciences, and the Office of Advanced Scientific Computing.


           Job information
           ---------------

    hostname        = Erics-MacBook-Pro.local
    program         = nwchem
    date            = Sat Apr 22 23:25:18 2023

    compiled        = Mon_Mar_27_19:09:42_2023
    source          = /Users/bylaska/nwchem-releases/nwchem
    nwchem branch   = 7.2.0
    nwchem revision = v7.2.0-beta1-380-gdf1eef5276
    ga revision     = 5.8.0
    use scalapack   = F
    input           = Gd1.nw
    prefix          = pspw-pbe-Gd1.
    data base       = ./perm/pspw-pbe-Gd1.db
    status          = startup
    nproc           =        6
    time left       =     -1s



           Memory information
           ------------------

    heap     =   75366396 doubles =    575.0 Mbytes
    stack    =   75366401 doubles =    575.0 Mbytes
    global   =  150732800 doubles =   1150.0 Mbytes (distinct from heap & stack)
    total    =  301465597 doubles =   2300.0 Mbytes
    verify   = yes
    hardfail = no 


           Directory information
           ---------------------

  0 permanent = ./perm
  0 scratch   = ./perm




                                NWChem Input Module
                                -------------------


           swnc: e theory=pspw xc=pbe formula=H130O65gd1 charge=0 mult=3
           -------------------------------------------------------------

 Scaling coordinates for geometry "geometry" by  1.889725989
 (inverse scale =  0.529177249)



                             Geometry "geometry" -> ""
                             -------------------------

 Output coordinates in angstroms (scale by  1.889725989 to convert to a.u.)

  No.       Tag          Charge          X              Y              Z
 ---- ---------------- ---------- -------------- -------------- --------------
    1 Gd                  64.0000     0.00000000     0.00000000     0.00000000

      Atomic Mass 
      ----------- 

      Gd               157.924100


 Effective nuclear repulsion energy (a.u.)       0.0000000000

            Nuclear Dipole moment (a.u.) 
            ----------------------------
        X                 Y               Z
 ---------------- ---------------- ----------------
     0.0000000000     0.0000000000     0.0000000000


            XYZ format geometry
            -------------------
     1
 geometry
 Gd                    0.00000000     0.00000000     0.00000000

          ****************************************************
          *                                                  *
          *               NWPW PSPW Calculation              *
          *                                                  *
          * [ (Grassmann/Stiefel manifold implementation)  ] *
          *                                                  *
          *      [ NorthWest Chemistry implementation ]      *
          *                                                  *
          *            version #5.10   06/12/02              *
          *                                                  *
          *    This code was developed by Eric J. Bylaska,   *
          *    and was based upon algorithms and code        *
          *    developed by the group of Prof. John H. Weare *
          *                                                  *
          ****************************************************
     >>>  JOB STARTED       AT Sat Apr 22 23:25:18 2023  <<<
          ================ input data ========================
  library name resolved from: compiled reference
  NWCHEM_NWPW_LIBRARY set to: </Users/bylaska/nwchem-releases/nwchem/src/nwpw/libraryps/>
 Generating 1d pseudopotential for Gd  

 Generated formatted_filename: ./perm/Gd.vpp
 - filtering pseudopotential -
 random planewave guess, initial psi:pspw-pbe-Gd1.movecs                               
 -   spin, nalpha, nbeta:                    2                   14                    4

 input psi filename:./perm/pspw-pbe-Gd1.movecs

 Warning - K.S. orbitals are not orthonormal. Applying Gram-Schmidt orthonormalization.
         - exact norm=0.180000E+02 norm=0.118357E+02 corrected norm=0.180000E+02 (error=0.616425E+01)


 number of processors used:         6
 processor grid           :   6 x   1
 parallel mapping         : 2d-hcurve
 parallel mapping         :  balanced
 number of threads        :         1
 parallel io              :       off

 options:
      boundary conditions  = periodic    (version3)
      electron spin        = unrestricted
      exchange-correlation = PBE96 (White and Bird) parameterization

 elements involved in the cluster:
      1: Gd  valence charge: 18.0000  lmax=  3
             comment    : Parameterized Gd TM psp (4f5s5p5d6s6p projectors, 4/6/2022 by EJB)
             pseudpotential type            :   0
             highest angular component      :   3
             local potential used           :   0
             number of non-local projections:  25
             semicore corrections included  :  0.900 (radius)  9.630 (charge)
             cutoff =   1.618   1.828   1.813   1.403


 total charge:   0.000

 atomic composition:
     Gd  :    1

 number of electrons: spin up=    14 (  14 per task)  down=     4 (   4 per task) (Fourier space)
 number of orbitals : spin up=    14 (  14 per task)  down=     4 (   4 per task) (Fourier space)

 supercell:
      cell_name:  cell_default                                      
      lattice:    a1=<  26.000   0.000   0.000 >
                  a2=<   0.000  26.000   0.000 >
                  a3=<   0.000   0.000  26.000 >
      reciprocal: b1=<   0.242   0.000   0.000 >
                  b2=<   0.000   0.242   0.000 >
                  b3=<   0.000   0.000   0.242 >
      lattice:    a=      26.000 b=     26.000 c=      26.000
                  alpha=  90.000 beta=  90.000 gamma=  90.000
                  omega=     17576.0

      density cutoff= 35.000  fft= 70x 70x 70(    86963 waves    14493 per task)
      wavefnc cutoff= 17.500  fft= 70x 70x 70(    30723 waves     5120 per task)
      Ewald summation: cut radius=    8.28  and  1
                       Madelung Wigner-Seitz=    1.76011888 (alpha=    2.83729748 rs=16.12911276)

 technical parameters:
      time step=      1.00     fictitious mass=  400000.0
      tolerance=0.100E-06 (energy)   0.100E-06 (density)
      maximum iterations =      1000 (   10 inner    100 outer )





== Energy Calculation ==


          ============ Grassmann lmbfgs iteration ============
     >>>  ITERATION STARTED AT Sat Apr 22 23:25:20 2023  <<<
    iter.           Energy         DeltaE       DeltaRho 
    ------------------------------------------------------
     -  15 steepest descent iterations performed
      10   -0.1076735813E+03   -0.15833E+01    0.62302E+01
     -  10 steepest descent iterations performed
      20   -0.1105541304E+03   -0.36572E-01    0.59934E-01
     -  10 steepest descent iterations performed
      30   -0.1106832096E+03   -0.10372E-01    0.27021E-02
     -  10 steepest descent iterations performed
      40   -0.1108525301E+03   -0.95218E-02    0.53618E-02
      50   -0.1109101364E+03   -0.21145E-02    0.10743E-02
      60   -0.1109208716E+03   -0.76181E-03    0.25752E-03
      70   -0.1109285929E+03   -0.86558E-03    0.18167E-03
     -  10 steepest descent iterations performed
      80   -0.1109385562E+03   -0.13363E-02    0.14799E-03
     -  10 steepest descent iterations performed
      90   -0.1109521099E+03   -0.11816E-02    0.20945E-03
     100   -0.1109702983E+03   -0.85842E-03    0.27973E-03
     110   -0.1109720324E+03   -0.87833E-04    0.21617E-04
     120   -0.1109727189E+03   -0.30552E-04    0.90028E-05
     130   -0.1109729418E+03   -0.13295E-04    0.33123E-05
     140   -0.1109730036E+03   -0.26062E-05    0.75027E-06
     150   -0.1109730175E+03   -0.78213E-06    0.15924E-06
     160   -0.1109730225E+03   -0.33109E-06    0.69491E-07
     170   -0.1109730242E+03   -0.98114E-07    0.19985E-07
  *** tolerance ok. iteration terminated
     >>>  ITERATION ENDED   AT Sat Apr 22 23:25:48 2023  <<<


==  Summary Of Results  ==

 number of electrons: spin up=   14.00000  down=    4.00000 (real space)

 total     energy    :  -0.1109730242E+03 (   -0.11097E+03/ion)
 total orbital energy:  -0.2453056503E+02 (   -0.13628E+01/electron)
 hartree   energy    :   0.6081840047E+02 (    0.33788E+01/electron)
 exc-corr  energy    :  -0.2172635448E+02 (   -0.12070E+01/electron)
 ion-ion   energy    :  -0.1767854583E+02 (   -0.17679E+02/ion)

 kinetic (planewave) :   0.2514581003E+02 (    0.13970E+01/electron)
 V_local (planewave) :  -0.1588236874E+03 (   -0.88235E+01/electron)
 V_nl    (planewave) :   0.1291352977E+01 (    0.71742E-01/electron)
 V_Coul  (planewave) :   0.1216368009E+03 (    0.67576E+01/electron)
 V_xc.   (planewave) :  -0.1378084156E+02 (   -0.76560E+00/electron)
 Virial Coefficient  :  -0.1975532902E+01

 orbital energies:
    -0.1043631E+00 (  -2.840eV)
    -0.2611330E+00 (  -7.106eV)
    -0.2611395E+00 (  -7.106eV)
    -0.2611613E+00 (  -7.107eV)
    -0.5659392E+00 ( -15.400eV)
    -0.7777565E+00 ( -21.164eV)
    -0.7777632E+00 ( -21.164eV)
    -0.7778097E+00 ( -21.165eV)
    -0.7778153E+00 ( -21.166eV)
    -0.7778155E+00 ( -21.166eV)
    -0.2193817E+01 ( -59.697eV)    -0.2059391E+01 ( -56.039eV)
    -0.2193818E+01 ( -59.697eV)    -0.2059393E+01 ( -56.039eV)
    -0.2193822E+01 ( -59.697eV)    -0.2059395E+01 ( -56.039eV)
    -0.3271182E+01 ( -89.014eV)    -0.3157050E+01 ( -85.908eV)

 Total PSPW energy     :  -0.1109730242E+03


=== Spin Contamination ===

 <Sexact^2> =    30.000000000000000     
 <S^2>      =    30.000883433010937     



== Center of Charge ==

spin up     (   -0.0002,   -0.0001,   -0.0000 )
spin down   (    0.0000,    0.0000,    0.0000 )
     total  (   -0.0001,   -0.0001,   -0.0000 )
ionic       (    0.0000,    0.0000,    0.0000 )


== Molecular Dipole wrt Center of Mass ==

mu   =  (    0.0023,    0.0016,    0.0006 ) au
|mu| =     0.0029 au,       0.0072 Debye

 output psi filename:./perm/pspw-pbe-Gd1.movecs

 Writing Crystallographic Information File:./perm/Gd1.cif
   - cell not shifted (nwpw:cif_shift_cell .false.)


== Timing ==

cputime in seconds
  prologue    :   0.198509E+01
  main loop   :   0.274130E+02
  epilogue    :   0.902300E-01
  total       :   0.294883E+02
  cputime/step:   0.620203E-01       (     442 evalulations,     169 linesearches)


Time spent doing                        total          step       percent
  total time                 :   0.294907E+02  0.667210E-01       100.0 %
  i/o time                   :   0.195231E+01  0.441700E-02         6.6 %
  FFTs                       :   0.606864E+01  0.137299E-01        20.6 %
  dot products               :   0.116624E+01  0.263856E-02         4.0 %
  geodesic                   :   0.194784E+01  0.440687E-02         6.6 %
  ffm_dgemm                  :   0.227323E+00  0.514304E-03         0.8 %
  fmf_dgemm                  :   0.112394E+01  0.254286E-02         3.8 %
  mmm_dgemm                  :   0.470554E-02  0.106460E-04         0.0 %
  m_diagonalize              :   0.560584E-02  0.126829E-04         0.0 %
  exchange correlation       :   0.112387E+02  0.254269E-01        38.1 %
  local pseudopotentials     :   0.110000E-03  0.248869E-06         0.0 %
  non-local pseudopotentials :   0.700624E+00  0.158512E-02         2.4 %
  hartree potentials         :   0.340630E-01  0.770656E-04         0.1 %
  ion-ion interaction        :   0.278300E-02  0.629638E-05         0.0 %
  structure factors          :   0.863361E-02  0.195331E-04         0.0 %
  phase factors              :   0.199900E-05  0.452262E-08         0.0 %
  masking and packing        :   0.123856E+01  0.280218E-02         4.2 %
  queue fft                  :   0.106946E+02  0.241959E-01        36.3 %
  queue fft (serial)         :   0.609835E+01  0.137972E-01        20.7 %
  queue fft (message passing):   0.443781E+01  0.100403E-01        15.0 %
  non-local psp FFM          :   0.341873E+00  0.773469E-03         1.2 %
  non-local psp FMF          :   0.293647E+00  0.664360E-03         1.0 %
  non-local psp FFM A        :   0.691826E-01  0.156522E-03         0.2 %
  non-local psp FFM B        :   0.252316E+00  0.570851E-03         0.9 %

     >>>  JOB COMPLETED     AT Sat Apr 22 23:25:48 2023  <<<
          ****************************************************
          *                                                  *
          *               NWPW PSPW Calculation              *
          *                                                  *
          * [ (Grassmann/Stiefel manifold implementation)  ] *
          *                                                  *
          *      [ NorthWest Chemistry implementation ]      *
          *                                                  *
          *            version #5.10   06/12/02              *
          *                                                  *
          *    This code was developed by Eric J. Bylaska,   *
          *    and was based upon algorithms and code        *
          *    developed by the group of Prof. John H. Weare *
          *                                                  *
          ****************************************************
     >>>  JOB STARTED       AT Sat Apr 22 23:25:48 2023  <<<
          ================ input data ========================
 pseudopotential is not correctly formatted:Gd.vpp                                            

 Generated formatted_filename: ./perm/Gd.vpp
 - filtering pseudopotential -
 Error reading psi - bad grid
 nfft :                   70                   70                   70
 ngrid:                  100                  100                  100
 Error reading psi - bad grid
 nfft :                   70                   70                   70
 ngrid:                  100                  100                  100
 Error reading psi - bad grid

 Grid is being converted:
 ------------------------

 To turn off automatic grid conversion:

 set nwpw:psi_nogrid .false.

 old_filename: pspw-pbe-Gd1.movecs                               
 new_filename: pspw-pbe-Gd1.movecs                               
 converting  :  70x 70x 70 --> 100x100x100
converting .... psi:    1 spin: 1
converting .... psi:    2 spin: 1
converting .... psi:    3 spin: 1
converting .... psi:    4 spin: 1
converting .... psi:    5 spin: 1
converting .... psi:    6 spin: 1
converting .... psi:    7 spin: 1
converting .... psi:    8 spin: 1
converting .... psi:    9 spin: 1
converting .... psi:   10 spin: 1
converting .... psi:   11 spin: 1
converting .... psi:   12 spin: 1
converting .... psi:   13 spin: 1
converting .... psi:   14 spin: 1
converting .... psi:    1 spin: 2
converting .... psi:    2 spin: 2
converting .... psi:    3 spin: 2
converting .... psi:    4 spin: 2

 input psi filename:./perm/pspw-pbe-Gd1.movecs

 number of processors used:         6
 processor grid           :   6 x   1
 parallel mapping         : 2d-hcurve
 parallel mapping         :  balanced
 number of threads        :         1
 parallel io              :       off

 options:
      boundary conditions  = periodic    (version3)
      electron spin        = unrestricted
      exchange-correlation = PBE96 (White and Bird) parameterization

 elements involved in the cluster:
      1: Gd  valence charge: 18.0000  lmax=  3
             comment    : Parameterized Gd TM psp (4f5s5p5d6s6p projectors, 4/6/2022 by EJB)
             pseudpotential type            :   0
             highest angular component      :   3
             local potential used           :   0
             number of non-local projections:  25
             semicore corrections included  :  0.900 (radius)  9.638 (charge)
             cutoff =   1.618   1.828   1.813   1.403


 total charge:   0.000

 atomic composition:
     Gd  :    1

 number of electrons: spin up=    14 (  14 per task)  down=     4 (   4 per task) (Fourier space)
 number of orbitals : spin up=    14 (  14 per task)  down=     4 (   4 per task) (Fourier space)

 supercell:
      cell_name:  cell_default                                      
      lattice:    a1=<  26.000   0.000   0.000 >
                  a2=<   0.000  26.000   0.000 >
                  a3=<   0.000   0.000  26.000 >
      reciprocal: b1=<   0.242   0.000   0.000 >
                  b2=<   0.000   0.242   0.000 >
                  b3=<   0.000   0.000   0.242 >
      lattice:    a=      26.000 b=     26.000 c=      26.000
                  alpha=  90.000 beta=  90.000 gamma=  90.000
                  omega=     17576.0

      density cutoff= 70.000  fft=100x100x100(   245909 waves    40984 per task)
      wavefnc cutoff= 35.000  fft=100x100x100(    86963 waves    14493 per task)
      Ewald summation: cut radius=    8.28  and  1
                       Madelung Wigner-Seitz=    1.76011888 (alpha=    2.83729748 rs=16.12911276)

 technical parameters:
      time step=      1.00     fictitious mass=  400000.0
      tolerance=0.100E-06 (energy)   0.100E-06 (density)
      maximum iterations =      1000 (   10 inner    100 outer )





== Energy Calculation ==


          ============ Grassmann lmbfgs iteration ============
     >>>  ITERATION STARTED AT Sat Apr 22 23:25:52 2023  <<<
    iter.           Energy         DeltaE       DeltaRho 
    ------------------------------------------------------
      10   -0.1109571303E+03   -0.10075E-03    0.10552E-02
      20   -0.1109576456E+03   -0.28457E-04    0.43241E-05
      30   -0.1109616276E+03   -0.32312E-02    0.19884E-02
     -  10 steepest descent iterations performed
      40   -0.1111730243E+03   -0.18325E-01    0.58245E-01
     -  10 steepest descent iterations performed
      50   -0.1112510703E+03   -0.21902E-02    0.91236E-03
      60   -0.1112627769E+03   -0.76974E-03    0.11889E-02
      70   -0.1112696401E+03   -0.44656E-03    0.25708E-02
      80   -0.1112716710E+03   -0.10936E-03    0.48676E-03
      90   -0.1112730511E+03   -0.12812E-03    0.79072E-03
     -  10 steepest descent iterations performed
     100   -0.1112737036E+03   -0.49061E-04    0.54939E-04
     110   -0.1112740788E+03   -0.30040E-04    0.13804E-03
     120   -0.1112743667E+03   -0.30045E-04    0.25643E-03
     -  10 steepest descent iterations performed
     130   -0.1112745103E+03   -0.13535E-04    0.19026E-04
     140   -0.1112746461E+03   -0.11898E-04    0.96495E-04
     150   -0.1112747522E+03   -0.75399E-05    0.10385E-03
     160   -0.1112749526E+03   -0.12525E-04    0.51742E-03
     -  10 steepest descent iterations performed
     170   -0.1112750277E+03   -0.63428E-05    0.71398E-05
     180   -0.1112750864E+03   -0.74847E-05    0.40107E-04
     -  10 steepest descent iterations performed
     190   -0.1112751223E+03   -0.35801E-05    0.42584E-05
     200   -0.1112751759E+03   -0.59961E-05    0.58627E-04
     -  10 steepest descent iterations performed
     210   -0.1112752242E+03   -0.45016E-05    0.33548E-05
     220   -0.1112752616E+03   -0.37136E-05    0.20310E-04
     230   -0.1112755755E+03   -0.27662E-04    0.25100E-02
     -  10 steepest descent iterations performed
     240   -0.1112757974E+03   -0.17694E-04    0.45938E-05
     250   -0.1112758472E+03   -0.42354E-05    0.61708E-05
     260   -0.1112759308E+03   -0.10960E-04    0.79496E-04
     -  10 steepest descent iterations performed
     270   -0.1112760076E+03   -0.56846E-05    0.30925E-05
     280   -0.1112760605E+03   -0.62552E-05    0.20570E-04
     -  10 steepest descent iterations performed
     290   -0.1112761050E+03   -0.45486E-05    0.32694E-05
     300   -0.1112761920E+03   -0.10126E-04    0.84785E-04
     -  10 steepest descent iterations performed
     310   -0.1112762745E+03   -0.65761E-05    0.39601E-05
     320   -0.1112763294E+03   -0.60269E-05    0.20470E-04
     330   -0.1112766321E+03   -0.32846E-04    0.14038E-02
     -  10 steepest descent iterations performed
     340   -0.1112769379E+03   -0.28138E-04    0.67154E-05
     350   -0.1112770010E+03   -0.65358E-05    0.87760E-05
     360   -0.1112770797E+03   -0.91899E-05    0.77190E-04
     -  10 steepest descent iterations performed
     370   -0.1112771585E+03   -0.62518E-05    0.49930E-05
     380   -0.1112772210E+03   -0.71875E-05    0.33753E-04
     -  10 steepest descent iterations performed
     390   -0.1112772739E+03   -0.55588E-05    0.46243E-05
     400   -0.1112773585E+03   -0.89842E-05    0.86522E-04
     -  10 steepest descent iterations performed
     410   -0.1112774330E+03   -0.63018E-05    0.53849E-05
     420   -0.1112774904E+03   -0.59403E-05    0.29807E-04
     430   -0.1112777154E+03   -0.21484E-04    0.96677E-03
     -  10 steepest descent iterations performed
     440   -0.1112779002E+03   -0.16992E-04    0.39586E-05
     450   -0.1112779391E+03   -0.41136E-05    0.53477E-05
     460   -0.1112779813E+03   -0.44106E-05    0.34234E-04
     -  10 steepest descent iterations performed
     470   -0.1112780215E+03   -0.32910E-05    0.27720E-05
     480   -0.1112780545E+03   -0.35641E-05    0.16672E-04
     -  10 steepest descent iterations performed
     490   -0.1112780813E+03   -0.29187E-05    0.22387E-05
     500   -0.1112781205E+03   -0.38223E-05    0.33228E-04
     -  10 steepest descent iterations performed
     510   -0.1112781535E+03   -0.28640E-05    0.23725E-05
     520   -0.1112781801E+03   -0.26356E-05    0.12542E-04
     530   -0.1112782781E+03   -0.10292E-04    0.35524E-03
     -  10 steepest descent iterations performed
     540   -0.1112783576E+03   -0.73642E-05    0.16949E-05
     550   -0.1112783758E+03   -0.21348E-05    0.26264E-05
     560   -0.1112783976E+03   -0.22278E-05    0.17438E-04
     -  10 steepest descent iterations performed
     570   -0.1112784190E+03   -0.17495E-05    0.13673E-05
     580   -0.1112784360E+03   -0.17906E-05    0.73466E-05
     -  10 steepest descent iterations performed
     590   -0.1112784500E+03   -0.16798E-05    0.12038E-05
     600   -0.1112784725E+03   -0.21689E-05    0.19048E-04
     -  10 steepest descent iterations performed
     610   -0.1112784922E+03   -0.17195E-05    0.12915E-05
     620   -0.1112785076E+03   -0.14854E-05    0.62186E-05
     630   -0.1112785725E+03   -0.86181E-05    0.24155E-03
     -  10 steepest descent iterations performed
     640   -0.1112786330E+03   -0.52159E-05    0.10535E-05
     650   -0.1112786472E+03   -0.17783E-05    0.20637E-05
     660   -0.1112786650E+03   -0.17206E-05    0.14042E-04
     670   -0.1112790042E+03   -0.81960E-05    0.38974E-02
     -  10 steepest descent iterations performed
     680   -0.1112790518E+03   -0.27930E-05    0.36040E-05
     690   -0.1112790733E+03   -0.32812E-05    0.84569E-05
     -  10 steepest descent iterations performed
     700   -0.1112790843E+03   -0.11026E-05    0.10784E-05
     710   -0.1112791020E+03   -0.13528E-05    0.20181E-04
     -  10 steepest descent iterations performed
     720   -0.1112791151E+03   -0.10856E-05    0.10879E-05
     730   -0.1112791242E+03   -0.12278E-05    0.55979E-05
     -  10 steepest descent iterations performed
     740   -0.1112791321E+03   -0.82993E-06    0.72111E-06
     750   -0.1112791443E+03   -0.94103E-06    0.12876E-04
     -  10 steepest descent iterations performed
     760   -0.1112791555E+03   -0.96350E-06    0.89028E-06
     -  10 steepest descent iterations performed
     770   -0.1112791602E+03   -0.54073E-06    0.83048E-06
     780   -0.1112792219E+03   -0.10419E-04    0.49524E-03
     -  10 steepest descent iterations performed
     790   -0.1112792719E+03   -0.35822E-05    0.64396E-06
     800   -0.1112792798E+03   -0.80661E-06    0.86128E-06
     810   -0.1112792903E+03   -0.91480E-06    0.72090E-05
     -  10 steepest descent iterations performed
     820   -0.1112793005E+03   -0.11338E-05    0.78992E-06
     -  10 steepest descent iterations performed
     830   -0.1112793051E+03   -0.49283E-06    0.47390E-06
     840   -0.1112793436E+03   -0.58233E-05    0.15912E-03
     -  10 steepest descent iterations performed
     850   -0.1112793796E+03   -0.14997E-05    0.48633E-06
     860   -0.1112793864E+03   -0.66360E-06    0.10519E-05
     870   -0.1112794039E+03   -0.20708E-05    0.24163E-04
     -  10 steepest descent iterations performed
     880   -0.1112794205E+03   -0.23953E-05    0.87659E-06
     -  10 steepest descent iterations performed
     890   -0.1112794257E+03   -0.46558E-06    0.40556E-06
     900   -0.1112794588E+03   -0.47803E-05    0.11234E-03
     -  10 steepest descent iterations performed
     910   -0.1112794893E+03   -0.10319E-05    0.57453E-06
     920   -0.1112794979E+03   -0.93619E-06    0.18463E-05
     930   -0.1112795203E+03   -0.37870E-05    0.45890E-04
     -  10 steepest descent iterations performed
     940   -0.1112795449E+03   -0.24841E-05    0.15841E-05
     950   -0.1112795583E+03   -0.12787E-05    0.61935E-05
     960   -0.1112795930E+03   -0.51750E-05    0.12445E-03
     -  10 steepest descent iterations performed
     970   -0.1112796270E+03   -0.16745E-05    0.90089E-06
     980   -0.1112796411E+03   -0.13063E-05    0.42217E-05
     990   -0.1112796657E+03   -0.25313E-05    0.49438E-04
     -  10 steepest descent iterations performed
    1000   -0.1112796905E+03   -0.23824E-05    0.19745E-05
 *** arrived at the Maximum iteration.  terminated
     >>>  ITERATION ENDED   AT Sat Apr 22 23:32:40 2023  <<<


==  Summary Of Results  ==

 number of electrons: spin up=   14.00000  down=    4.00000 (real space)

 total     energy    :  -0.1112796905E+03 (   -0.11128E+03/ion)
 total orbital energy:  -0.1958030432E+02 (   -0.10878E+01/electron)
 hartree   energy    :   0.6628241832E+02 (    0.36824E+01/electron)
 exc-corr  energy    :  -0.2239085842E+02 (   -0.12439E+01/electron)
 ion-ion   energy    :  -0.1767854583E+02 (   -0.17679E+02/ion)

 kinetic (planewave) :   0.3406629475E+02 (    0.18926E+01/electron)
 V_local (planewave) :  -0.1661587967E+03 (   -0.92310E+01/electron)
 V_nl    (planewave) :  -0.5400202679E+01 (   -0.30001E+00/electron)
 V_Coul  (planewave) :   0.1325648366E+03 (    0.73647E+01/electron)
 V_xc.   (planewave) :  -0.1465243637E+02 (   -0.81402E+00/electron)
 Virial Coefficient  :  -0.1574770590E+01

 orbital energies:
    -0.1413214E+00 (  -3.846eV)
    -0.1421732E+00 (  -3.869eV)
    -0.1493118E+00 (  -4.063eV)
    -0.1515842E+00 (  -4.125eV)
    -0.3747909E+00 ( -10.199eV)
    -0.4900267E+00 ( -13.334eV)
    -0.4901409E+00 ( -13.338eV)
    -0.4923409E+00 ( -13.397eV)
    -0.4930312E+00 ( -13.416eV)
    -0.4935735E+00 ( -13.431eV)
    -0.1827060E+01 ( -49.717eV)    -0.1672034E+01 ( -45.499eV)
    -0.1830133E+01 ( -49.801eV)    -0.1679369E+01 ( -45.698eV)
    -0.1833398E+01 ( -49.890eV)    -0.1683772E+01 ( -45.818eV)
    -0.2885521E+01 ( -78.520eV)    -0.2750722E+01 ( -74.852eV)

 Total PSPW energy     :  -0.1112796905E+03


=== Spin Contamination ===

 <Sexact^2> =    30.000000000000000     
 <S^2>      =    30.000939316650303     



== Center of Charge ==

spin up     (    0.0001,   -0.0000,    0.0004 )
spin down   (    0.0000,   -0.0000,    0.0000 )
     total  (    0.0001,   -0.0000,    0.0003 )
ionic       (    0.0000,    0.0000,    0.0000 )


== Molecular Dipole wrt Center of Mass ==

mu   =  (   -0.0012,    0.0005,   -0.0051 ) au
|mu| =     0.0052 au,       0.0133 Debye

 output psi filename:./perm/pspw-pbe-Gd1.movecs

 Writing Crystallographic Information File:./perm/Gd1.cif
   - cell not shifted (nwpw:cif_shift_cell .false.)


== Timing ==

cputime in seconds
  prologue    :   0.408546E+01
  main loop   :   0.408332E+03
  epilogue    :   0.222058E+00
  total       :   0.412640E+03
  cputime/step:   0.155852E+00       (    2620 evalulations,    1000 linesearches)


Time spent doing                        total          step       percent
  total time                 :   0.412642E+03  0.157497E+00       100.0 %
  i/o time                   :   0.394500E+01  0.150573E-02         1.0 %
  FFTs                       :   0.812793E+02  0.310226E-01        19.7 %
  dot products               :   0.125718E+02  0.479841E-02         3.0 %
  geodesic                   :   0.237429E+02  0.906219E-02         5.8 %
  ffm_dgemm                  :   0.393454E+01  0.150173E-02         1.0 %
  fmf_dgemm                  :   0.181399E+02  0.692361E-02         4.4 %
  mmm_dgemm                  :   0.414237E-01  0.158106E-04         0.0 %
  m_diagonalize              :   0.328121E-01  0.125237E-04         0.0 %
  exchange correlation       :   0.176815E+03  0.674867E-01        42.8 %
  local pseudopotentials     :   0.354000E-03  0.135115E-06         0.0 %
  non-local pseudopotentials :   0.119385E+02  0.455667E-02         2.9 %
  hartree potentials         :   0.575276E+00  0.219571E-03         0.1 %
  ion-ion interaction        :   0.414590E-01  0.158240E-04         0.0 %
  structure factors          :   0.131029E+00  0.500109E-04         0.0 %
  phase factors              :   0.199900E-05  0.762977E-09         0.0 %
  masking and packing        :   0.198405E+02  0.757272E-02         4.8 %
  queue fft                  :   0.147501E+03  0.562982E-01        35.7 %
  queue fft (serial)         :   0.615586E+02  0.234956E-01        14.9 %
  queue fft (message passing):   0.817169E+02  0.311897E-01        19.8 %
  non-local psp FFM          :   0.600075E+01  0.229036E-02         1.5 %
  non-local psp FMF          :   0.458531E+01  0.175012E-02         1.1 %
  non-local psp FFM A        :   0.115697E+01  0.441593E-03         0.3 %
  non-local psp FFM B        :   0.457509E+01  0.174622E-02         1.1 %

     >>>  JOB COMPLETED     AT Sat Apr 22 23:32:40 2023  <<<
          ****************************************************
          *                                                  *
          *               NWPW PSPW Calculation              *
          *                                                  *
          * [ (Grassmann/Stiefel manifold implementation)  ] *
          *                                                  *
          *      [ NorthWest Chemistry implementation ]      *
          *                                                  *
          *            version #5.10   06/12/02              *
          *                                                  *
          *    This code was developed by Eric J. Bylaska,   *
          *    and was based upon algorithms and code        *
          *    developed by the group of Prof. John H. Weare *
          *                                                  *
          ****************************************************
     >>>  JOB STARTED       AT Sat Apr 22 23:32:40 2023  <<<
          ================ input data ========================
 pseudopotential is not correctly formatted:Gd.vpp                                            

 Generated formatted_filename: ./perm/Gd.vpp
 - filtering pseudopotential -
 Error reading psi - bad grid
 nfft :                  100                  100                  100
 ngrid:                  126                  126                  126
 Error reading psi - bad grid
 nfft :                  100                  100                  100
 ngrid:                  126                  126                  126
 Error reading psi - bad grid

 Grid is being converted:
 ------------------------

 To turn off automatic grid conversion:

 set nwpw:psi_nogrid .false.

 old_filename: pspw-pbe-Gd1.movecs                               
 new_filename: pspw-pbe-Gd1.movecs                               
 converting  : 100x100x100 --> 126x126x126
converting .... psi:    1 spin: 1
converting .... psi:    2 spin: 1
converting .... psi:    3 spin: 1
converting .... psi:    4 spin: 1
converting .... psi:    5 spin: 1
converting .... psi:    6 spin: 1
converting .... psi:    7 spin: 1
converting .... psi:    8 spin: 1
converting .... psi:    9 spin: 1
converting .... psi:   10 spin: 1
converting .... psi:   11 spin: 1
converting .... psi:   12 spin: 1
converting .... psi:   13 spin: 1
converting .... psi:   14 spin: 1
converting .... psi:    1 spin: 2
converting .... psi:    2 spin: 2
converting .... psi:    3 spin: 2
converting .... psi:    4 spin: 2

 input psi filename:./perm/pspw-pbe-Gd1.movecs

 number of processors used:         6
 processor grid           :   6 x   1
 parallel mapping         : 2d-hcurve
 parallel mapping         :  balanced
 number of threads        :         1
 parallel io              :       off

 options:
      boundary conditions  = periodic    (version3)
      electron spin        = unrestricted
      exchange-correlation = PBE96 (White and Bird) parameterization

 elements involved in the cluster:
      1: Gd  valence charge: 18.0000  lmax=  3
             comment    : Parameterized Gd TM psp (4f5s5p5d6s6p projectors, 4/6/2022 by EJB)
             pseudpotential type            :   0
             highest angular component      :   3
             local potential used           :   0
             number of non-local projections:  25
             semicore corrections included  :  0.900 (radius)  9.639 (charge)
             cutoff =   1.618   1.828   1.813   1.403


 total charge:   0.000

 atomic composition:
     Gd  :    1

 number of electrons: spin up=    14 (  14 per task)  down=     4 (   4 per task) (Fourier space)
 number of orbitals : spin up=    14 (  14 per task)  down=     4 (   4 per task) (Fourier space)

 supercell:
      cell_name:  cell_default                                      
      lattice:    a1=<  26.000   0.000   0.000 >
                  a2=<   0.000  26.000   0.000 >
                  a3=<   0.000   0.000  26.000 >
      reciprocal: b1=<   0.242   0.000   0.000 >
                  b2=<   0.000   0.242   0.000 >
                  b3=<   0.000   0.000   0.242 >
      lattice:    a=      26.000 b=     26.000 c=      26.000
                  alpha=  90.000 beta=  90.000 gamma=  90.000
                  omega=     17576.0

      density cutoff=105.000  fft=126x126x126(   451466 waves    75246 per task)
      wavefnc cutoff= 52.500  fft=126x126x126(   159625 waves    26604 per task)
      Ewald summation: cut radius=    8.28  and  1
                       Madelung Wigner-Seitz=    1.76011888 (alpha=    2.83729748 rs=16.12911276)

 technical parameters:
      time step=      1.00     fictitious mass=  400000.0
      tolerance=0.100E-06 (energy)   0.100E-06 (density)
      maximum iterations =      1000 (   10 inner    100 outer )





== Energy Calculation ==


          ============ Grassmann lmbfgs iteration ============
     >>>  ITERATION STARTED AT Sat Apr 22 23:32:50 2023  <<<
    iter.           Energy         DeltaE       DeltaRho 
    ------------------------------------------------------
      10   -0.1143592749E+03   -0.17943E-01    0.48118E+00
     -  10 steepest descent iterations performed
      20   -0.1159719443E+03   -0.13474E+00    0.61913E+00
     -  10 steepest descent iterations performed
      30   -0.1162822246E+03   -0.39495E-02    0.39748E-01
      40   -0.1162957082E+03   -0.62299E-03    0.24259E-02
      50   -0.1163010951E+03   -0.60884E-03    0.14319E-01
      60   -0.1164331355E+03   -0.39366E-01    0.11746E+01
     -  10 steepest descent iterations performed
      70   -0.1168010554E+03   -0.21760E-01    0.10726E+00
     -  10 steepest descent iterations performed
      80   -0.1169447938E+03   -0.83158E-02    0.66968E-01
      90   -0.1170433157E+03   -0.31982E-02    0.53860E-01
     100   -0.1170585541E+03   -0.93572E-03    0.13666E-02
     110   -0.1170644497E+03   -0.31844E-03    0.37750E-03
     120   -0.1170663868E+03   -0.10692E-03    0.11523E-03
     130   -0.1170670532E+03   -0.52461E-04    0.38119E-04
     140   -0.1170674494E+03   -0.33555E-04    0.36604E-04
     150   -0.1170677599E+03   -0.30582E-04    0.46480E-04
     160   -0.1170680335E+03   -0.25232E-04    0.52356E-04
     170   -0.1170682359E+03   -0.15379E-04    0.41430E-04
     180   -0.1170683294E+03   -0.56110E-05    0.13647E-04
     190   -0.1170683663E+03   -0.23699E-05    0.37966E-05
     200   -0.1170683806E+03   -0.90451E-06    0.10586E-05
     210   -0.1170683871E+03   -0.55783E-06    0.58935E-06
     220   -0.1170683922E+03   -0.51975E-06    0.68499E-06
     230   -0.1170683991E+03   -0.91069E-06    0.23225E-05
     -  10 steepest descent iterations performed
     240   -0.1170684037E+03   -0.48686E-06    0.11819E-06
     250   -0.1170684087E+03   -0.37985E-06    0.62413E-06
     260   -0.1170684127E+03   -0.37958E-06    0.72391E-06
     270   -0.1170684205E+03   -0.14815E-05    0.41595E-05
     -  10 steepest descent iterations performed
     280   -0.1170684269E+03   -0.45307E-06    0.10035E-06
     290   -0.1170684310E+03   -0.36179E-06    0.33177E-06
     300   -0.1170684351E+03   -0.43710E-06    0.81296E-06
     -  10 steepest descent iterations performed
     310   -0.1170684374E+03   -0.23266E-06    0.42319E-07
     320   -0.1170684417E+03   -0.56319E-06    0.90382E-06
     -  10 steepest descent iterations performed
     330   -0.1170684443E+03   -0.27051E-06    0.36281E-07
     340   -0.1170684469E+03   -0.23776E-06    0.25706E-06
     350   -0.1170684557E+03   -0.98008E-06    0.59067E-05
     -  10 steepest descent iterations performed
     360   -0.1170684628E+03   -0.45216E-06    0.55223E-07
     370   -0.1170684663E+03   -0.44101E-06    0.20508E-06
     380   -0.1170684691E+03   -0.30018E-06    0.36201E-06
     390   -0.1170684778E+03   -0.76071E-06    0.58545E-05
     -  10 steepest descent iterations performed
     400   -0.1170684843E+03   -0.60133E-06    0.14841E-06
     410   -0.1170684888E+03   -0.49241E-06    0.39472E-06
     420   -0.1170684918E+03   -0.24903E-06    0.35623E-06
     430   -0.1170684963E+03   -0.49230E-06    0.14544E-05
     -  10 steepest descent iterations performed
     440   -0.1170685002E+03   -0.32846E-06    0.64913E-07
     450   -0.1170685037E+03   -0.46337E-06    0.38213E-06
     -  10 steepest descent iterations performed
     460   -0.1170685056E+03   -0.17684E-06    0.30840E-07
     470   -0.1170685081E+03   -0.30462E-06    0.34279E-06
     -  10 steepest descent iterations performed
     480   -0.1170685104E+03   -0.23290E-06    0.35701E-07
     490   -0.1170685124E+03   -0.21755E-06    0.17973E-06
     500   -0.1170685377E+03   -0.23605E-05    0.59351E-04
     -  10 steepest descent iterations performed
     510   -0.1170685617E+03   -0.12859E-05    0.92902E-07
     520   -0.1170685639E+03   -0.26524E-06    0.40849E-07
     530   -0.1170685657E+03   -0.18253E-06    0.17986E-06
     540   -0.1170685888E+03   -0.21168E-05    0.52321E-04
     -  10 steepest descent iterations performed
     550   -0.1170686067E+03   -0.57512E-06    0.13049E-06
     560   -0.1170686114E+03   -0.32889E-06    0.19634E-06
     570   -0.1170686136E+03   -0.26267E-06    0.20488E-06
     580   -0.1170686164E+03   -0.33159E-06    0.65409E-06
     -  10 steepest descent iterations performed
     590   -0.1170686189E+03   -0.40508E-06    0.70857E-07
     -  10 steepest descent iterations performed
     600   -0.1170686194E+03   -0.92399E-07    0.24294E-08
  *** tolerance ok. iteration terminated
     >>>  ITERATION ENDED   AT Sat Apr 22 23:42:08 2023  <<<


==  Summary Of Results  ==

 number of electrons: spin up=   14.00000  down=    4.00000 (real space)

 total     energy    :  -0.1170686194E+03 (   -0.11707E+03/ion)
 total orbital energy:  -0.1084891692E+02 (   -0.60272E+00/electron)
 hartree   energy    :   0.8098732082E+02 (    0.44993E+01/electron)
 exc-corr  energy    :  -0.2544542084E+02 (   -0.14136E+01/electron)
 ion-ion   energy    :  -0.1767854583E+02 (   -0.17679E+02/ion)

 kinetic (planewave) :   0.9719557149E+02 (    0.53998E+01/electron)
 V_local (planewave) :  -0.1785179806E+03 (   -0.99177E+01/electron)
 V_nl    (planewave) :  -0.7360956442E+02 (   -0.40894E+01/electron)
 V_Coul  (planewave) :   0.1619746416E+03 (    0.89986E+01/electron)
 V_xc.   (planewave) :  -0.1789158504E+02 (   -0.99398E+00/electron)
 Virial Coefficient  :  -0.1111619457E+01

 orbital energies:
    -0.9195535E-01 (  -2.502eV)
    -0.9220353E-01 (  -2.509eV)
    -0.1516621E+00 (  -4.127eV)
    -0.1521640E+00 (  -4.141eV)
    -0.1531383E+00 (  -4.167eV)
    -0.1548898E+00 (  -4.215eV)
    -0.1617748E+00 (  -4.402eV)
    -0.1641520E+00 (  -4.467eV)
    -0.1650577E+00 (  -4.491eV)
    -0.1663390E+00 (  -4.526eV)
    -0.1029062E+01 ( -28.002eV)    -0.8956793E+00 ( -24.373eV)
    -0.1029299E+01 ( -28.009eV)    -0.8962081E+00 ( -24.387eV)
    -0.1029501E+01 ( -28.014eV)    -0.8965067E+00 ( -24.395eV)
    -0.1889463E+01 ( -51.415eV)    -0.1729860E+01 ( -47.072eV)

 Total PSPW energy     :  -0.1170686194E+03


=== Spin Contamination ===

 <Sexact^2> =    30.000000000000000     
 <S^2>      =    30.004015245304110     



== Center of Charge ==

spin up     (    0.0000,   -0.0000,   -0.0001 )
spin down   (   -0.0000,    0.0001,   -0.0000 )
     total  (    0.0000,    0.0000,   -0.0001 )
ionic       (    0.0000,    0.0000,    0.0000 )


== Molecular Dipole wrt Center of Mass ==

mu   =  (   -0.0004,   -0.0002,    0.0018 ) au
|mu| =     0.0018 au,       0.0047 Debye

 output psi filename:./perm/pspw-pbe-Gd1.movecs

 Writing Crystallographic Information File:./perm/Gd1.cif
   - cell not shifted (nwpw:cif_shift_cell .false.)


== Timing ==

cputime in seconds
  prologue    :   0.965584E+01
  main loop   :   0.557555E+03
  epilogue    :   0.413775E+00
  total       :   0.567625E+03
  cputime/step:   0.370715E+00       (    1504 evalulations,     594 linesearches)


Time spent doing                        total          step       percent
  total time                 :   0.567627E+03  0.377412E+00       100.0 %
  i/o time                   :   0.932693E+01  0.620141E-02         1.6 %
  FFTs                       :   0.125955E+03  0.837467E-01        22.2 %
  dot products               :   0.157010E+02  0.104395E-01         2.8 %
  geodesic                   :   0.293462E+02  0.195121E-01         5.2 %
  ffm_dgemm                  :   0.397074E+01  0.264012E-02         0.7 %
  fmf_dgemm                  :   0.207884E+02  0.138221E-01         3.7 %
  mmm_dgemm                  :   0.218530E-01  0.145299E-04         0.0 %
  m_diagonalize              :   0.208815E-01  0.138840E-04         0.0 %
  exchange correlation       :   0.234754E+03  0.156087E+00        41.4 %
  local pseudopotentials     :   0.536000E-03  0.356383E-06         0.0 %
  non-local pseudopotentials :   0.136437E+02  0.907161E-02         2.4 %
  hartree potentials         :   0.615295E+00  0.409106E-03         0.1 %
  ion-ion interaction        :   0.485920E-01  0.323085E-04         0.0 %
  structure factors          :   0.130793E+00  0.869631E-04         0.0 %
  phase factors              :   0.399900E-05  0.265891E-08         0.0 %
  masking and packing        :   0.226010E+02  0.150273E-01         4.0 %
  queue fft                  :   0.217687E+03  0.144739E+00        38.4 %
  queue fft (serial)         :   0.108433E+03  0.720964E-01        19.1 %
  queue fft (message passing):   0.104049E+03  0.691813E-01        18.3 %
  non-local psp FFM          :   0.643959E+01  0.428164E-02         1.1 %
  non-local psp FMF          :   0.581903E+01  0.386904E-02         1.0 %
  non-local psp FFM A        :   0.118145E+01  0.785540E-03         0.2 %
  non-local psp FFM B        :   0.503587E+01  0.334832E-02         0.9 %

     >>>  JOB COMPLETED     AT Sat Apr 22 23:42:08 2023  <<<
          ****************************************************
          *                                                  *
          *               NWPW PSPW Calculation              *
          *                                                  *
          * [ (Grassmann/Stiefel manifold implementation)  ] *
          *                                                  *
          *      [ NorthWest Chemistry implementation ]      *
          *                                                  *
          *            version #5.10   06/12/02              *
          *                                                  *
          *    This code was developed by Eric J. Bylaska,   *
          *    and was based upon algorithms and code        *
          *    developed by the group of Prof. John H. Weare *
          *                                                  *
          ****************************************************
     >>>  JOB STARTED       AT Sat Apr 22 23:42:08 2023  <<<
          ================ input data ========================
 pseudopotential is not correctly formatted:Gd.vpp                                            

 Generated formatted_filename: ./perm/Gd.vpp
 - filtering pseudopotential -
 Error reading psi - bad grid
 nfft :                  126                  126                  126
 ngrid:                  140                  140                  140
 Error reading psi - bad grid
 nfft :                  126                  126                  126
 ngrid:                  140                  140                  140
 Error reading psi - bad grid

 Grid is being converted:
 ------------------------

 To turn off automatic grid conversion:

 set nwpw:psi_nogrid .false.

 old_filename: pspw-pbe-Gd1.movecs                               
 new_filename: pspw-pbe-Gd1.movecs                               
 converting  : 126x126x126 --> 140x140x140
converting .... psi:    1 spin: 1
converting .... psi:    2 spin: 1
converting .... psi:    3 spin: 1
converting .... psi:    4 spin: 1
converting .... psi:    5 spin: 1
converting .... psi:    6 spin: 1
converting .... psi:    7 spin: 1
converting .... psi:    8 spin: 1
converting .... psi:    9 spin: 1
converting .... psi:   10 spin: 1
converting .... psi:   11 spin: 1
converting .... psi:   12 spin: 1
converting .... psi:   13 spin: 1
converting .... psi:   14 spin: 1
converting .... psi:    1 spin: 2
converting .... psi:    2 spin: 2
converting .... psi:    3 spin: 2
converting .... psi:    4 spin: 2

 input psi filename:./perm/pspw-pbe-Gd1.movecs

 number of processors used:         6
 processor grid           :   6 x   1
 parallel mapping         : 2d-hcurve
 parallel mapping         :  balanced
 number of threads        :         1
 parallel io              :       off

 options:
      boundary conditions  = periodic    (version3)
      electron spin        = unrestricted
      exchange-correlation = PBE96 (White and Bird) parameterization

 elements involved in the cluster:
      1: Gd  valence charge: 18.0000  lmax=  3
             comment    : Parameterized Gd TM psp (4f5s5p5d6s6p projectors, 4/6/2022 by EJB)
             pseudpotential type            :   0
             highest angular component      :   3
             local potential used           :   0
             number of non-local projections:  25
             semicore corrections included  :  0.900 (radius)  9.639 (charge)
             cutoff =   1.618   1.828   1.813   1.403


 total charge:   0.000

 atomic composition:
     Gd  :    1

 number of electrons: spin up=    14 (  14 per task)  down=     4 (   4 per task) (Fourier space)
 number of orbitals : spin up=    14 (  14 per task)  down=     4 (   4 per task) (Fourier space)

 supercell:
      cell_name:  cell_default                                      
      lattice:    a1=<  26.000   0.000   0.000 >
                  a2=<   0.000  26.000   0.000 >
                  a3=<   0.000   0.000  26.000 >
      reciprocal: b1=<   0.242   0.000   0.000 >
                  b2=<   0.000   0.242   0.000 >
                  b3=<   0.000   0.000   0.242 >
      lattice:    a=      26.000 b=     26.000 c=      26.000
                  alpha=  90.000 beta=  90.000 gamma=  90.000
                  omega=     17576.0

      density cutoff=140.000  fft=140x140x140(   695428 waves   115908 per task)
      wavefnc cutoff= 70.000  fft=140x140x140(   245909 waves    40984 per task)
      Ewald summation: cut radius=    8.28  and  1
                       Madelung Wigner-Seitz=    1.76011888 (alpha=    2.83729748 rs=16.12911276)

 technical parameters:
      time step=      1.00     fictitious mass=  400000.0
      tolerance=0.100E-06 (energy)   0.100E-06 (density)
      maximum iterations =      1000 (   10 inner    100 outer )





== Energy Calculation ==


          ============ Grassmann lmbfgs iteration ============
     >>>  ITERATION STARTED AT Sat Apr 22 23:42:22 2023  <<<
    iter.           Energy         DeltaE       DeltaRho 
    ------------------------------------------------------
      10   -0.1194264855E+03   -0.18605E-02    0.15204E+00
     -  10 steepest descent iterations performed
      20   -0.1194318204E+03   -0.17499E-03    0.94406E-04
      30   -0.1194322255E+03   -0.13857E-04    0.16312E-04
      40   -0.1194322892E+03   -0.30420E-05    0.99878E-06
      50   -0.1194323057E+03   -0.93028E-06    0.20676E-06
      60   -0.1194323103E+03   -0.32085E-06    0.23882E-07
      70   -0.1194323120E+03   -0.14266E-06    0.29501E-07
      80   -0.1194323133E+03   -0.13451E-06    0.68883E-07
      90   -0.1194323153E+03   -0.33377E-06    0.47248E-06
     -  10 steepest descent iterations performed
     100   -0.1194323170E+03   -0.14034E-06    0.71238E-08
     110   -0.1194323183E+03   -0.13775E-06    0.47090E-07
     120   -0.1194323200E+03   -0.22047E-06    0.21657E-06
     -  10 steepest descent iterations performed
     130   -0.1194323201E+03   -0.93111E-07    0.13216E-09
  *** tolerance ok. iteration terminated
     >>>  ITERATION ENDED   AT Sat Apr 22 23:45:01 2023  <<<


==  Summary Of Results  ==

 number of electrons: spin up=   14.00000  down=    4.00000 (real space)

 total     energy    :  -0.1194323201E+03 (   -0.11943E+03/ion)
 total orbital energy:  -0.1162126364E+02 (   -0.64563E+00/electron)
 hartree   energy    :   0.8263940989E+02 (    0.45911E+01/electron)
 exc-corr  energy    :  -0.2586106219E+02 (   -0.14367E+01/electron)
 ion-ion   energy    :  -0.1767854583E+02 (   -0.17679E+02/ion)

 kinetic (planewave) :   0.1074317116E+03 (    0.59684E+01/electron)
 V_local (planewave) :  -0.1786600041E+03 (   -0.99256E+01/electron)
 V_nl    (planewave) :  -0.8730382955E+02 (   -0.48502E+01/electron)
 V_Coul  (planewave) :   0.1652788198E+03 (    0.91822E+01/electron)
 V_xc.   (planewave) :  -0.1836796141E+02 (   -0.10204E+01/electron)
 Virial Coefficient  :  -0.1108173494E+01

 orbital energies:
    -0.8780786E-01 (  -2.389eV)
    -0.8805738E-01 (  -2.396eV)
    -0.1528780E+00 (  -4.160eV)
    -0.3195609E+00 (  -8.696eV)
    -0.3210086E+00 (  -8.735eV)
    -0.3212788E+00 (  -8.743eV)
    -0.3226033E+00 (  -8.779eV)
    -0.3259231E+00 (  -8.869eV)
    -0.3266303E+00 (  -8.888eV)
    -0.3269012E+00 (  -8.896eV)
    -0.9832164E+00 ( -26.755eV)    -0.8639008E+00 ( -23.508eV)
    -0.9833769E+00 ( -26.759eV)    -0.8642864E+00 ( -23.519eV)
    -0.9835326E+00 ( -26.763eV)    -0.8646007E+00 ( -23.527eV)
    -0.1817830E+01 ( -49.466eV)    -0.1667871E+01 ( -45.385eV)

 Total PSPW energy     :  -0.1194323201E+03


=== Spin Contamination ===

 <Sexact^2> =    30.000000000000000     
 <S^2>      =    30.004715685349485     



== Center of Charge ==

spin up     (    0.0000,   -0.0000,   -0.0000 )
spin down   (   -0.0000,   -0.0000,    0.0000 )
     total  (    0.0000,   -0.0000,   -0.0000 )
ionic       (    0.0000,    0.0000,    0.0000 )


== Molecular Dipole wrt Center of Mass ==

mu   =  (   -0.0000,    0.0000,    0.0001 ) au
|mu| =     0.0001 au,       0.0003 Debye

 output psi filename:./perm/pspw-pbe-Gd1.movecs

 Writing Crystallographic Information File:./perm/Gd1.cif
   - cell not shifted (nwpw:cif_shift_cell .false.)


== Timing ==

cputime in seconds
  prologue    :   0.142846E+02
  main loop   :   0.158989E+03
  epilogue    :   0.540962E+00
  total       :   0.173814E+03
  cputime/step:   0.526453E+00       (     302 evalulations,     121 linesearches)


Time spent doing                        total          step       percent
  total time                 :   0.173817E+03  0.575552E+00       100.0 %
  i/o time                   :   0.137978E+02  0.456880E-01         7.9 %
  FFTs                       :   0.360778E+02  0.119463E+00        20.8 %
  dot products               :   0.367797E+01  0.121787E-01         2.1 %
  geodesic                   :   0.694941E+01  0.230113E-01         4.0 %
  ffm_dgemm                  :   0.124261E+01  0.411461E-02         0.7 %
  fmf_dgemm                  :   0.575238E+01  0.190476E-01         3.3 %
  mmm_dgemm                  :   0.284908E-01  0.943404E-04         0.0 %
  m_diagonalize              :   0.437990E-02  0.145030E-04         0.0 %
  exchange correlation       :   0.659687E+02  0.218439E+00        38.0 %
  local pseudopotentials     :   0.811000E-03  0.268543E-05         0.0 %
  non-local pseudopotentials :   0.411133E+01  0.136137E-01         2.4 %
  hartree potentials         :   0.185818E+00  0.615291E-03         0.1 %
  ion-ion interaction        :   0.144840E-01  0.479603E-04         0.0 %
  structure factors          :   0.411397E-01  0.136224E-03         0.0 %
  phase factors              :   0.299900E-05  0.993046E-08         0.0 %
  masking and packing        :   0.577353E+01  0.191177E-01         3.3 %
  queue fft                  :   0.634075E+02  0.209959E+00        36.5 %
  queue fft (serial)         :   0.313375E+02  0.103767E+00        18.0 %
  queue fft (message passing):   0.305918E+02  0.101297E+00        17.6 %
  non-local psp FFM          :   0.202918E+01  0.671914E-02         1.2 %
  non-local psp FMF          :   0.165189E+01  0.546983E-02         1.0 %
  non-local psp FFM A        :   0.369755E+00  0.122435E-02         0.2 %
  non-local psp FFM B        :   0.160139E+01  0.530262E-02         0.9 %

     >>>  JOB COMPLETED     AT Sat Apr 22 23:45:02 2023  <<<

 Task  times  cpu:     1183.6s     wall:     1183.6s


                                NWChem Input Module
                                -------------------


 Summary of allocated global arrays
-----------------------------------
  No active global arrays


MA_summarize_allocated_blocks: starting scan ...
MA_summarize_allocated_blocks: scan completed: 0 heap blocks, 0 stack blocks
MA usage statistics:

	allocation statistics:
					      heap	     stack
					      ----	     -----
	current number of blocks	         0	         0
	maximum number of blocks	       277	        21
	current total bytes		         0	         0
	maximum total bytes		 425505176	 105269160
	maximum total K-bytes		    425506	    105270
	maximum total M-bytes		       426	       106


                                     CITATION
                                     --------
                Please cite the following reference when publishing
                           results obtained with NWChem:

          E. Apra, E. J. Bylaska, W. A. de Jong, N. Govind, K. Kowalski,
       T. P. Straatsma, M. Valiev, H. J. J. van Dam, Y. Alexeev, J. Anchell,
       V. Anisimov, F. W. Aquino, R. Atta-Fynn, J. Autschbach, N. P. Bauman,
     J. C. Becca, D. E. Bernholdt, K. Bhaskaran-Nair, S. Bogatko, P. Borowski,
         J. Boschen, J. Brabec, A. Bruner, E. Cauet, Y. Chen, G. N. Chuev,
      C. J. Cramer, J. Daily, M. J. O. Deegan, T. H. Dunning Jr., M. Dupuis,
   K. G. Dyall, G. I. Fann, S. A. Fischer, A. Fonari, H. Fruchtl, L. Gagliardi,
      J. Garza, N. Gawande, S. Ghosh, K. Glaesemann, A. W. Gotz, J. Hammond,
       V. Helms, E. D. Hermes, K. Hirao, S. Hirata, M. Jacquelin, L. Jensen,
   B. G. Johnson, H. Jonsson, R. A. Kendall, M. Klemm, R. Kobayashi, V. Konkov,
      S. Krishnamoorthy, M. Krishnan, Z. Lin, R. D. Lins, R. J. Littlefield,
      A. J. Logsdail, K. Lopata, W. Ma, A. V. Marenich, J. Martin del Campo,
   D. Mejia-Rodriguez, J. E. Moore, J. M. Mullin, T. Nakajima, D. R. Nascimento,
    J. A. Nichols, P. J. Nichols, J. Nieplocha, A. Otero-de-la-Roza, B. Palmer,
    A. Panyala, T. Pirojsirikul, B. Peng, R. Peverati, J. Pittner, L. Pollack,
   R. M. Richard, P. Sadayappan, G. C. Schatz, W. A. Shelton, D. W. Silverstein,
   D. M. A. Smith, T. A. Soares, D. Song, M. Swart, H. L. Taylor, G. S. Thomas,
            V. Tipparaju, D. G. Truhlar, K. Tsemekhman, T. Van Voorhis,
      A. Vazquez-Mayagoitia, P. Verma, O. Villa, A. Vishnu, K. D. Vogiatzis,
        D. Wang, J. H. Weare, M. J. Williamson, T. L. Windus, K. Wolinski,
        A. T. Wong, Q. Wu, C. Yang, Q. Yu, M. Zacharias, Z. Zhang, Y. Zhao,
                                and R. J. Harrison
                        "NWChem: Past, present, and future
                         J. Chem. Phys. 152, 184102 (2020)
                               doi:10.1063/5.0004997

                                      AUTHORS
                                      -------
  E. Apra, E. J. Bylaska, N. Govind, K. Kowalski, M. Valiev, D. Mejia-Rodriguez,
       A. Kunitsa, N. P. Bauman, A. Panyala, W. A. de Jong, T. P. Straatsma,
   H. J. J. van Dam, D. Wang, T. L. Windus, J. Hammond, J. Autschbach, A. Woods,
    K. Bhaskaran-Nair, J. Brabec, K. Lopata, S. A. Fischer, S. Krishnamoorthy,
     M. Jacquelin, W. Ma, M. Klemm, O. Villa, Y. Chen, V. Anisimov, F. Aquino,
     S. Hirata, M. T. Hackler, E. Hermes, L. Jensen, J. E. Moore, J. C. Becca,
      V. Konjkov, T. Risthaus, M. Malagoli, A. Marenich, A. Otero-de-la-Roza,
        J. Mullin, P. Nichols, R. Peverati, J. Pittner, Y. Zhao, P.-D. Fan,
        A. Fonari, M. J. Williamson, R. J. Harrison, J. R. Rehr, M. Dupuis,
     D. Silverstein, D. M. A. Smith, J. Nieplocha, V. Tipparaju, M. Krishnan,
     B. E. Van Kuiken, A. Vazquez-Mayagoitia, M. Swart, Q. Wu, T. Van Voorhis,
     A. A. Auer, M. Nooijen, L. D. Crosby, E. Brown, G. Cisneros, G. I. Fann,
   H. Fruchtl, J. Garza, K. Hirao, R. A. Kendall, J. A. Nichols, K. Tsemekhman,
    K. Wolinski, J. Anchell, D. E. Bernholdt, P. Borowski, T. Clark, D. Clerc,
   H. Dachsel, M. J. O. Deegan, K. Dyall, D. Elwood, E. Glendening, M. Gutowski,
   A. C. Hess, J. Jaffe, B. G. Johnson, J. Ju, R. Kobayashi, R. Kutteh, Z. Lin,
   R. Littlefield, X. Long, B. Meng, T. Nakajima, S. Niu, L. Pollack, M. Rosing,
   K. Glaesemann, G. Sandrone, M. Stave, H. Taylor, G. Thomas, J. H. van Lenthe,
                               A. T. Wong, Z. Zhang.

 Total times  cpu:     1183.6s     wall:     1183.6s
