 argument  1 = Pm1.nw



============================== echo of input deck ==============================
title "swnc: e theory=pspw xc=pbe formula=H130O65pm1 charge=0 mult=3"
#machinejob:expert

permanent_dir ./perm
scratch_dir   ./perm

echo

start pspw-pbe-Pm1

memory 2300 mb

charge 0

geometry
Pm 0.0 0.0 0.0
end


nwpw
  simulation_cell
     SC 26.0
     #boundary_conditions aperiodic
  end

  ### pseudopotential block begin ###
  ### pseudopotential block end   ###
  2d-hcurve
  time_step 1.0
  cutoff 80.0
  lmbfgs

  mult 8
  xc pbe96

end
set nwpw:kbpp_ray    .true.
set nwpw:kbpp_filter .true.
#set nwpw:gram-schmidt .true.
set nwpw:cif_filename Pm1

#task pspw steepest_descent
task pspw energy ignore
================================================================================


                                         
                                         


             Northwest Computational Chemistry Package (NWChem) 7.2.0
             --------------------------------------------------------


                    Environmental Molecular Sciences Laboratory
                       Pacific Northwest National Laboratory
                                Richland, WA 99352

                              Copyright (c) 1994-2022
                       Pacific Northwest National Laboratory
                            Battelle Memorial Institute

             NWChem is an open-source computational chemistry package
                        distributed under the terms of the
                      Educational Community License (ECL) 2.0
             A copy of the license is included with this distribution
                              in the LICENSE.TXT file

                                  ACKNOWLEDGMENT
                                  --------------

            This software and its documentation were developed at the
            EMSL at Pacific Northwest National Laboratory, a multiprogram
            national laboratory, operated for the U.S. Department of Energy
            by Battelle under Contract Number DE-AC05-76RL01830. Support
            for this work was provided by the Department of Energy Office
            of Biological and Environmental Research, Office of Basic
            Energy Sciences, and the Office of Advanced Scientific Computing.


           Job information
           ---------------

    hostname        = Erics-MacBook-Pro.local
    program         = nwchem
    date            = Tue Apr 25 12:38:12 2023

    compiled        = Mon_Mar_27_19:09:42_2023
    source          = /Users/bylaska/nwchem-releases/nwchem
    nwchem branch   = 7.2.0
    nwchem revision = v7.2.0-beta1-380-gdf1eef5276
    ga revision     = 5.8.0
    use scalapack   = F
    input           = Pm1.nw
    prefix          = pspw-pbe-Pm1.
    data base       = ./perm/pspw-pbe-Pm1.db
    status          = startup
    nproc           =        6
    time left       =     -1s



           Memory information
           ------------------

    heap     =   75366396 doubles =    575.0 Mbytes
    stack    =   75366401 doubles =    575.0 Mbytes
    global   =  150732800 doubles =   1150.0 Mbytes (distinct from heap & stack)
    total    =  301465597 doubles =   2300.0 Mbytes
    verify   = yes
    hardfail = no 


           Directory information
           ---------------------

  0 permanent = ./perm
  0 scratch   = ./perm




                                NWChem Input Module
                                -------------------


           swnc: e theory=pspw xc=pbe formula=H130O65pm1 charge=0 mult=3
           -------------------------------------------------------------

 Scaling coordinates for geometry "geometry" by  1.889725989
 (inverse scale =  0.529177249)



                             Geometry "geometry" -> ""
                             -------------------------

 Output coordinates in angstroms (scale by  1.889725989 to convert to a.u.)

  No.       Tag          Charge          X              Y              Z
 ---- ---------------- ---------- -------------- -------------- --------------
    1 Pm                  61.0000     0.00000000     0.00000000     0.00000000

      Atomic Mass 
      ----------- 

      Pm               144.912800


 Effective nuclear repulsion energy (a.u.)       0.0000000000

            Nuclear Dipole moment (a.u.) 
            ----------------------------
        X                 Y               Z
 ---------------- ---------------- ----------------
     0.0000000000     0.0000000000     0.0000000000


            XYZ format geometry
            -------------------
     1
 geometry
 Pm                    0.00000000     0.00000000     0.00000000

          ****************************************************
          *                                                  *
          *               NWPW PSPW Calculation              *
          *                                                  *
          * [ (Grassmann/Stiefel manifold implementation)  ] *
          *                                                  *
          *      [ NorthWest Chemistry implementation ]      *
          *                                                  *
          *            version #5.10   06/12/02              *
          *                                                  *
          *    This code was developed by Eric J. Bylaska,   *
          *    and was based upon algorithms and code        *
          *    developed by the group of Prof. John H. Weare *
          *                                                  *
          ****************************************************
     >>>  JOB STARTED       AT Tue Apr 25 12:38:12 2023  <<<
          ================ input data ========================
  library name resolved from: compiled reference
  NWCHEM_NWPW_LIBRARY set to: </Users/bylaska/nwchem-releases/nwchem/src/nwpw/libraryps/>
 Generating 1d pseudopotential for Pm  

 Generated formatted_filename: ./perm/Pm.vpp
 - filtering pseudopotential -
 random planewave guess, initial psi:pspw-pbe-Pm1.movecs                               
 -   spin, nalpha, nbeta:                    2                   11                    4

 input psi filename:./perm/pspw-pbe-Pm1.movecs

 Warning - K.S. orbitals are not orthonormal. Applying Gram-Schmidt orthonormalization.
         - exact norm=0.150000E+02 norm=0.969539E+01 corrected norm=0.150000E+02 (error=0.530461E+01)


 number of processors used:         6
 processor grid           :   6 x   1
 parallel mapping         : 2d-hcurve
 parallel mapping         :  balanced
 number of threads        :         1
 parallel io              :       off

 options:
      boundary conditions  = periodic    (version3)
      electron spin        = unrestricted
      exchange-correlation = PBE96 (White and Bird) parameterization

 elements involved in the cluster:
      1: Pm  valence charge: 15.0000  lmax=  3
             comment    : Parameterized Pm TM psp (4f5s5p5d6s6p projectors, 4/6/2022 by EJB)
             pseudpotential type            :   0
             highest angular component      :   3
             local potential used           :   2
             number of non-local projections:  22
             semicore corrections included  :  0.980 (radius)  9.180 (charge)
             cutoff =   1.648   1.868   2.103   1.403


 total charge:   0.000

 atomic composition:
     Pm  :    1

 number of electrons: spin up=    11 (  11 per task)  down=     4 (   4 per task) (Fourier space)
 number of orbitals : spin up=    11 (  11 per task)  down=     4 (   4 per task) (Fourier space)

 supercell:
      cell_name:  cell_default                                      
      lattice:    a1=<  26.000   0.000   0.000 >
                  a2=<   0.000  26.000   0.000 >
                  a3=<   0.000   0.000  26.000 >
      reciprocal: b1=<   0.242   0.000   0.000 >
                  b2=<   0.000   0.242   0.000 >
                  b3=<   0.000   0.000   0.242 >
      lattice:    a=      26.000 b=     26.000 c=      26.000
                  alpha=  90.000 beta=  90.000 gamma=  90.000
                  omega=     17576.0

      density cutoff= 40.000  fft= 80x 80x 80(   106048 waves    17674 per task)
      wavefnc cutoff= 20.000  fft= 80x 80x 80(    37447 waves     6241 per task)
      Ewald summation: cut radius=    8.28  and  1
                       Madelung Wigner-Seitz=    1.76011888 (alpha=    2.83729748 rs=16.12911276)

 technical parameters:
      time step=      1.00     fictitious mass=  400000.0
      tolerance=0.100E-06 (energy)   0.100E-06 (density)
      maximum iterations =      1000 (   10 inner    100 outer )





== Energy Calculation ==


          ============ Grassmann lmbfgs iteration ============
     >>>  ITERATION STARTED AT Tue Apr 25 12:38:15 2023  <<<
    iter.           Energy         DeltaE       DeltaRho 
    ------------------------------------------------------
     -  15 steepest descent iterations performed
      10   -0.6958666860E+02   -0.12088E+01    0.31842E+01
     -  10 steepest descent iterations performed
      20   -0.7348555772E+02   -0.21604E+00    0.10850E+00
     -  10 steepest descent iterations performed
      30   -0.7407705832E+02   -0.87127E-02    0.89106E-02
      40   -0.7410286434E+02   -0.82970E-03    0.43698E-03
      50   -0.7410769571E+02   -0.33647E-03    0.40960E-04
      60   -0.7410914053E+02   -0.48960E-04    0.11304E-04
      70   -0.7410935050E+02   -0.92444E-05    0.80193E-06
      80   -0.7410938909E+02   -0.15139E-05    0.21856E-06
      90   -0.7410939551E+02   -0.23109E-06    0.45515E-07
     100   -0.7410939722E+02   -0.19782E-06    0.26779E-07
     110   -0.7410940117E+02   -0.65209E-06    0.48267E-06
     -  10 steepest descent iterations performed
     120   -0.7410940460E+02   -0.24650E-06    0.19430E-07
     130   -0.7410940626E+02   -0.16138E-06    0.45509E-07
     140   -0.7410941037E+02   -0.75519E-06    0.68114E-06
     -  10 steepest descent iterations performed
     150   -0.7410941370E+02   -0.23199E-06    0.11073E-07
     160   -0.7410941552E+02   -0.17583E-06    0.28092E-07
     170   -0.7410941786E+02   -0.25824E-06    0.19924E-06
     -  10 steepest descent iterations performed
     180   -0.7410941986E+02   -0.19007E-06    0.16169E-07
     190   -0.7410942164E+02   -0.18537E-06    0.69822E-07
     200   -0.7410942441E+02   -0.36257E-06    0.35274E-06
     -  10 steepest descent iterations performed
     210   -0.7410942688E+02   -0.18792E-06    0.12612E-07
     220   -0.7410942857E+02   -0.16747E-06    0.35167E-07
     230   -0.7410943033E+02   -0.17225E-06    0.13547E-06
     -  10 steepest descent iterations performed
     240   -0.7410943192E+02   -0.15829E-06    0.13497E-07
     250   -0.7410943348E+02   -0.16638E-06    0.63274E-07
     -  10 steepest descent iterations performed
     260   -0.7410943358E+02   -0.74500E-07    0.13643E-10
  *** tolerance ok. iteration terminated
     >>>  ITERATION ENDED   AT Tue Apr 25 12:39:00 2023  <<<


==  Summary Of Results  ==

 number of electrons: spin up=   11.00000  down=    4.00000 (real space)

 total     energy    :  -0.7410943358E+02 (   -0.74109E+02/ion)
 total orbital energy:  -0.1395171063E+02 (   -0.93011E+00/electron)
 hartree   energy    :   0.4089850159E+02 (    0.27266E+01/electron)
 exc-corr  energy    :  -0.1740128374E+02 (   -0.11601E+01/electron)
 ion-ion   energy    :  -0.1227676794E+02 (   -0.12277E+02/ion)

 kinetic (planewave) :   0.1670825896E+02 (    0.11139E+01/electron)
 V_local (planewave) :  -0.1019002789E+03 (   -0.67934E+01/electron)
 V_nl    (planewave) :  -0.1378635107E+00 (   -0.91909E-02/electron)
 V_Coul  (planewave) :   0.8179700319E+02 (    0.54531E+01/electron)
 V_xc.   (planewave) :  -0.1041883032E+02 (   -0.69459E+00/electron)
 Virial Coefficient  :  -0.1835018817E+01

 orbital energies:
    -0.8017580E-01 (  -2.182eV)
    -0.2321049E+00 (  -6.316eV)
    -0.2868470E+00 (  -7.806eV)
    -0.2891741E+00 (  -7.869eV)
    -0.2892154E+00 (  -7.870eV)
    -0.2958493E+00 (  -8.051eV)
    -0.2958625E+00 (  -8.051eV)
    -0.1352299E+01 ( -36.798eV)    -0.1253776E+01 ( -34.117eV)
    -0.1359761E+01 ( -37.001eV)    -0.1262588E+01 ( -34.357eV)
    -0.1359768E+01 ( -37.001eV)    -0.1262591E+01 ( -34.357eV)
    -0.2206421E+01 ( -60.040eV)    -0.2125277E+01 ( -57.832eV)

 Total PSPW energy     :  -0.7410943358E+02


=== Spin Contamination ===

 <Sexact^2> =    15.750000000000000     
 <S^2>      =    15.751297376661284     



== Center of Charge ==

spin up     (    0.0004,    0.0002,    0.0002 )
spin down   (   -0.0000,   -0.0000,   -0.0000 )
     total  (    0.0003,    0.0002,    0.0001 )
ionic       (    0.0000,    0.0000,    0.0000 )


== Molecular Dipole wrt Center of Mass ==

mu   =  (   -0.0046,   -0.0026,   -0.0019 ) au
|mu| =     0.0056 au,       0.0144 Debye

 output psi filename:./perm/pspw-pbe-Pm1.movecs

 Writing Crystallographic Information File:./perm/Pm1.cif
   - cell not shifted (nwpw:cif_shift_cell .false.)


== Timing ==

cputime in seconds
  prologue    :   0.276966E+01
  main loop   :   0.450958E+02
  epilogue    :   0.105276E+00
  total       :   0.479707E+02
  cputime/step:   0.690594E-01       (     653 evalulations,     251 linesearches)


Time spent doing                        total          step       percent
  total time                 :   0.479730E+02  0.734656E-01       100.0 %
  i/o time                   :   0.271663E+01  0.416022E-02         5.7 %
  FFTs                       :   0.992239E+01  0.151951E-01        20.7 %
  dot products               :   0.129461E+01  0.198256E-02         2.7 %
  geodesic                   :   0.213151E+01  0.326418E-02         4.4 %
  ffm_dgemm                  :   0.315368E+00  0.482952E-03         0.7 %
  fmf_dgemm                  :   0.142626E+01  0.218416E-02         3.0 %
  mmm_dgemm                  :   0.105704E-01  0.161875E-04         0.0 %
  m_diagonalize              :   0.796776E-02  0.122018E-04         0.0 %
  exchange correlation       :   0.219852E+02  0.336679E-01        45.8 %
  local pseudopotentials     :   0.132000E-03  0.202144E-06         0.0 %
  non-local pseudopotentials :   0.974040E+00  0.149164E-02         2.0 %
  hartree potentials         :   0.608140E-01  0.931302E-04         0.1 %
  ion-ion interaction        :   0.418700E-02  0.641194E-05         0.0 %
  structure factors          :   0.148364E-01  0.227204E-04         0.0 %
  phase factors              :   0.299900E-05  0.459265E-08         0.0 %
  masking and packing        :   0.222720E+01  0.341072E-02         4.6 %
  queue fft                  :   0.147375E+02  0.225689E-01        30.7 %
  queue fft (serial)         :   0.588632E+01  0.901427E-02        12.3 %
  queue fft (message passing):   0.853419E+01  0.130692E-01        17.8 %
  non-local psp FFM          :   0.507453E+00  0.777110E-03         1.1 %
  non-local psp FMF          :   0.356838E+00  0.546459E-03         0.7 %
  non-local psp FFM A        :   0.107243E+00  0.164232E-03         0.2 %
  non-local psp FFM B        :   0.350522E+00  0.536787E-03         0.7 %

     >>>  JOB COMPLETED     AT Tue Apr 25 12:39:00 2023  <<<
          ****************************************************
          *                                                  *
          *               NWPW PSPW Calculation              *
          *                                                  *
          * [ (Grassmann/Stiefel manifold implementation)  ] *
          *                                                  *
          *      [ NorthWest Chemistry implementation ]      *
          *                                                  *
          *            version #5.10   06/12/02              *
          *                                                  *
          *    This code was developed by Eric J. Bylaska,   *
          *    and was based upon algorithms and code        *
          *    developed by the group of Prof. John H. Weare *
          *                                                  *
          ****************************************************
     >>>  JOB STARTED       AT Tue Apr 25 12:39:00 2023  <<<
          ================ input data ========================
 pseudopotential is not correctly formatted:Pm.vpp                                            

 Generated formatted_filename: ./perm/Pm.vpp
 - filtering pseudopotential -
 Error reading psi - bad grid
 nfft :                   80                   80                   80
 ngrid:                  108                  108                  108
 Error reading psi - bad grid
 nfft :                   80                   80                   80
 ngrid:                  108                  108                  108
 Error reading psi - bad grid

 Grid is being converted:
 ------------------------

 To turn off automatic grid conversion:

 set nwpw:psi_nogrid .false.

 old_filename: pspw-pbe-Pm1.movecs                               
 new_filename: pspw-pbe-Pm1.movecs                               
 converting  :  80x 80x 80 --> 108x108x108
converting .... psi:    1 spin: 1
converting .... psi:    2 spin: 1
converting .... psi:    3 spin: 1
converting .... psi:    4 spin: 1
converting .... psi:    5 spin: 1
converting .... psi:    6 spin: 1
converting .... psi:    7 spin: 1
converting .... psi:    8 spin: 1
converting .... psi:    9 spin: 1
converting .... psi:   10 spin: 1
converting .... psi:   11 spin: 1
converting .... psi:    1 spin: 2
converting .... psi:    2 spin: 2
converting .... psi:    3 spin: 2
converting .... psi:    4 spin: 2

 input psi filename:./perm/pspw-pbe-Pm1.movecs

 number of processors used:         6
 processor grid           :   6 x   1
 parallel mapping         : 2d-hcurve
 parallel mapping         :  balanced
 number of threads        :         1
 parallel io              :       off

 options:
      boundary conditions  = periodic    (version3)
      electron spin        = unrestricted
      exchange-correlation = PBE96 (White and Bird) parameterization

 elements involved in the cluster:
      1: Pm  valence charge: 15.0000  lmax=  3
             comment    : Parameterized Pm TM psp (4f5s5p5d6s6p projectors, 4/6/2022 by EJB)
             pseudpotential type            :   0
             highest angular component      :   3
             local potential used           :   2
             number of non-local projections:  22
             semicore corrections included  :  0.980 (radius)  9.185 (charge)
             cutoff =   1.648   1.868   2.103   1.403


 total charge:   0.000

 atomic composition:
     Pm  :    1

 number of electrons: spin up=    11 (  11 per task)  down=     4 (   4 per task) (Fourier space)
 number of orbitals : spin up=    11 (  11 per task)  down=     4 (   4 per task) (Fourier space)

 supercell:
      cell_name:  cell_default                                      
      lattice:    a1=<  26.000   0.000   0.000 >
                  a2=<   0.000  26.000   0.000 >
                  a3=<   0.000   0.000  26.000 >
      reciprocal: b1=<   0.242   0.000   0.000 >
                  b2=<   0.000   0.242   0.000 >
                  b3=<   0.000   0.000   0.242 >
      lattice:    a=      26.000 b=     26.000 c=      26.000
                  alpha=  90.000 beta=  90.000 gamma=  90.000
                  omega=     17576.0

      density cutoff= 80.000  fft=108x108x108(   300163 waves    50028 per task)
      wavefnc cutoff= 40.000  fft=108x108x108(   106048 waves    17674 per task)
      Ewald summation: cut radius=    8.28  and  1
                       Madelung Wigner-Seitz=    1.76011888 (alpha=    2.83729748 rs=16.12911276)

 technical parameters:
      time step=      1.00     fictitious mass=  400000.0
      tolerance=0.100E-06 (energy)   0.100E-06 (density)
      maximum iterations =      1000 (   10 inner    100 outer )





== Energy Calculation ==


          ============ Grassmann lmbfgs iteration ============
     >>>  ITERATION STARTED AT Tue Apr 25 12:39:06 2023  <<<
    iter.           Energy         DeltaE       DeltaRho 
    ------------------------------------------------------
      10   -0.7415246783E+02   -0.27661E-04    0.43462E-03
      20   -0.7416244176E+02   -0.55175E-02    0.21125E-01
     -  10 steepest descent iterations performed
      30   -0.7441361194E+02   -0.11853E-01    0.60758E-01
     -  10 steepest descent iterations performed
      40   -0.7444982267E+02   -0.14177E-02    0.67806E-03
      50   -0.7445526375E+02   -0.15271E-03    0.32021E-03
      60   -0.7445574697E+02   -0.16649E-04    0.66137E-04
      70   -0.7445609180E+02   -0.66915E-04    0.15157E-02
     -  10 steepest descent iterations performed
      80   -0.7445637873E+02   -0.16885E-04    0.36253E-04
      90   -0.7445671365E+02   -0.73460E-04    0.12749E-02
     -  10 steepest descent iterations performed
     100   -0.7445718416E+02   -0.45161E-04    0.63468E-04
     110   -0.7446133950E+02   -0.96238E-03    0.25567E-01
     -  10 steepest descent iterations performed
     120   -0.7447509698E+02   -0.93272E-03    0.91843E-03
     130   -0.7448067009E+02   -0.62767E-03    0.29135E-02
     140   -0.7448417405E+02   -0.10424E-03    0.28989E-02
     150   -0.7448530917E+02   -0.11954E-03    0.72570E-03
     -  10 steepest descent iterations performed
     160   -0.7448600333E+02   -0.59487E-04    0.74278E-04
     170   -0.7448694648E+02   -0.16605E-03    0.11131E-02
     -  10 steepest descent iterations performed
     180   -0.7448756047E+02   -0.51552E-04    0.94963E-04
     190   -0.7448826946E+02   -0.67922E-04    0.12070E-02
     -  10 steepest descent iterations performed
     200   -0.7448888681E+02   -0.57432E-04    0.74018E-04
     210   -0.7448949559E+02   -0.80227E-04    0.73571E-03
     -  10 steepest descent iterations performed
     220   -0.7449007572E+02   -0.49915E-04    0.63696E-04
     230   -0.7449064166E+02   -0.47331E-04    0.70367E-03
     240   -0.7449336998E+02   -0.11757E-03    0.18574E-01
     -  10 steepest descent iterations performed
     250   -0.7449409112E+02   -0.66229E-04    0.95499E-04
     260   -0.7449439327E+02   -0.25132E-04    0.19385E-03
     270   -0.7449480379E+02   -0.25642E-04    0.10289E-02
     -  10 steepest descent iterations performed
     280   -0.7449499692E+02   -0.16886E-04    0.40626E-04
     290   -0.7449515480E+02   -0.16394E-04    0.23698E-03
     300   -0.7449539861E+02   -0.18084E-04    0.12282E-02
     -  10 steepest descent iterations performed
     310   -0.7449557669E+02   -0.20099E-04    0.35904E-04
     -  10 steepest descent iterations performed
     320   -0.7449564635E+02   -0.59921E-05    0.23150E-04
     330   -0.7449577768E+02   -0.14999E-04    0.45488E-03
     -  10 steepest descent iterations performed
     340   -0.7449584898E+02   -0.50723E-05    0.12728E-04
     350   -0.7449591072E+02   -0.67340E-05    0.11777E-03
     -  10 steepest descent iterations performed
     360   -0.7449594924E+02   -0.21529E-05    0.74625E-05
     370   -0.7449600023E+02   -0.76472E-05    0.15318E-03
     -  10 steepest descent iterations performed
     380   -0.7449603906E+02   -0.23103E-05    0.57013E-05
     390   -0.7449606813E+02   -0.35210E-05    0.56831E-04
     -  10 steepest descent iterations performed
     400   -0.7449609214E+02   -0.13419E-05    0.43946E-05
     410   -0.7449612224E+02   -0.44329E-05    0.81946E-04
     -  10 steepest descent iterations performed
     420   -0.7449614718E+02   -0.15566E-05    0.36499E-05
     430   -0.7449616542E+02   -0.20757E-05    0.32005E-04
     -  10 steepest descent iterations performed
     440   -0.7449618111E+02   -0.95603E-06    0.29272E-05
     450   -0.7449620146E+02   -0.29133E-05    0.51414E-04
     -  10 steepest descent iterations performed
     460   -0.7449621939E+02   -0.12133E-05    0.27030E-05
     470   -0.7449623271E+02   -0.14437E-05    0.21653E-04
     -  10 steepest descent iterations performed
     480   -0.7449624457E+02   -0.78494E-06    0.22922E-05
     490   -0.7449626000E+02   -0.21355E-05    0.35991E-04
     -  10 steepest descent iterations performed
     500   -0.7449627408E+02   -0.10363E-05    0.22377E-05
     510   -0.7449628486E+02   -0.11371E-05    0.16738E-04
     -  10 steepest descent iterations performed
     520   -0.7449629485E+02   -0.70727E-06    0.20157E-05
     530   -0.7449630802E+02   -0.17980E-05    0.29466E-04
     -  10 steepest descent iterations performed
     540   -0.7449632056E+02   -0.97770E-06    0.20918E-05
     550   -0.7449633011E+02   -0.97958E-06    0.14151E-04
     -  10 steepest descent iterations performed
     560   -0.7449633913E+02   -0.67176E-06    0.19176E-05
     570   -0.7449635072E+02   -0.15139E-05    0.24208E-04
     -  10 steepest descent iterations performed
     580   -0.7449636170E+02   -0.89491E-06    0.18810E-05
     590   -0.7449637001E+02   -0.83794E-06    0.11599E-04
     600   -0.7449648522E+02   -0.14571E-04    0.36488E-02
     -  10 steepest descent iterations performed
     610   -0.7449653780E+02   -0.50264E-05    0.58257E-06
     620   -0.7449654514E+02   -0.21793E-06    0.39417E-06
     630   -0.7449654870E+02   -0.19945E-06    0.20220E-05
     640   -0.7449657052E+02   -0.24103E-05    0.20427E-03
     -  10 steepest descent iterations performed
     650   -0.7449658225E+02   -0.95360E-06    0.69916E-06
     660   -0.7449658459E+02   -0.24512E-06    0.77560E-06
     670   -0.7449658717E+02   -0.23003E-06    0.40452E-05
     680   -0.7449659150E+02   -0.40488E-06    0.16225E-04
     -  10 steepest descent iterations performed
     690   -0.7449659421E+02   -0.27426E-06    0.66181E-06
     700   -0.7449659612E+02   -0.16433E-06    0.16600E-05
     710   -0.7449659789E+02   -0.18956E-06    0.23487E-05
     -  10 steepest descent iterations performed
     720   -0.7449659804E+02   -0.89636E-07    0.68623E-10
  *** tolerance ok. iteration terminated
     >>>  ITERATION ENDED   AT Tue Apr 25 12:44:45 2023  <<<


==  Summary Of Results  ==

 number of electrons: spin up=   11.00000  down=    4.00000 (real space)

 total     energy    :  -0.7449659804E+02 (   -0.74497E+02/ion)
 total orbital energy:  -0.1132206195E+02 (   -0.75480E+00/electron)
 hartree   energy    :   0.4391710131E+02 (    0.29278E+01/electron)
 exc-corr  energy    :  -0.1820119341E+02 (   -0.12134E+01/electron)
 ion-ion   energy    :  -0.1227676794E+02 (   -0.12277E+02/ion)

 kinetic (planewave) :   0.3123705406E+02 (    0.20825E+01/electron)
 V_local (planewave) :  -0.1062738041E+03 (   -0.70849E+01/electron)
 V_nl    (planewave) :  -0.1289898797E+02 (   -0.85993E+00/electron)
 V_Coul  (planewave) :   0.8783420261E+02 (    0.58556E+01/electron)
 V_xc.   (planewave) :  -0.1122052656E+02 (   -0.74804E+00/electron)
 Virial Coefficient  :  -0.1362456137E+01

 orbital energies:
    -0.1552546E+00 (  -4.225eV)
    -0.1564217E+00 (  -4.256eV)
    -0.1597290E+00 (  -4.346eV)
    -0.1620396E+00 (  -4.409eV)
    -0.1623967E+00 (  -4.419eV)
    -0.1636706E+00 (  -4.454eV)
    -0.1805670E+00 (  -4.914eV)
    -0.1114005E+01 ( -30.314eV)    -0.1014051E+01 ( -27.594eV)
    -0.1118970E+01 ( -30.449eV)    -0.1019160E+01 ( -27.733eV)
    -0.1121911E+01 ( -30.529eV)    -0.1029554E+01 ( -28.016eV)
    -0.1927813E+01 ( -52.459eV)    -0.1836517E+01 ( -49.975eV)

 Total PSPW energy     :  -0.7449659804E+02


=== Spin Contamination ===

 <Sexact^2> =    15.750000000000000     
 <S^2>      =    15.751209258382024     



== Center of Charge ==

spin up     (   -0.0000,   -0.0002,   -0.0000 )
spin down   (   -0.0001,    0.0000,    0.0000 )
     total  (   -0.0000,   -0.0002,   -0.0000 )
ionic       (    0.0000,    0.0000,    0.0000 )


== Molecular Dipole wrt Center of Mass ==

mu   =  (    0.0005,    0.0024,    0.0003 ) au
|mu| =     0.0025 au,       0.0062 Debye

 output psi filename:./perm/pspw-pbe-Pm1.movecs

 Writing Crystallographic Information File:./perm/Pm1.cif
   - cell not shifted (nwpw:cif_shift_cell .false.)


== Timing ==

cputime in seconds
  prologue    :   0.568122E+01
  main loop   :   0.338869E+03
  epilogue    :   0.231841E+00
  total       :   0.344782E+03
  cputime/step:   0.179486E+00       (    1888 evalulations,     711 linesearches)


Time spent doing                        total          step       percent
  total time                 :   0.344784E+03  0.182619E+00       100.0 %
  i/o time                   :   0.552534E+01  0.292656E-02         1.6 %
  FFTs                       :   0.762902E+02  0.404079E-01        22.1 %
  dot products               :   0.929859E+01  0.492510E-02         2.7 %
  geodesic                   :   0.151471E+02  0.802281E-02         4.4 %
  ffm_dgemm                  :   0.260989E+01  0.138236E-02         0.8 %
  fmf_dgemm                  :   0.109468E+02  0.579808E-02         3.2 %
  mmm_dgemm                  :   0.383563E-01  0.203158E-04         0.0 %
  m_diagonalize              :   0.227174E-01  0.120325E-04         0.0 %
  exchange correlation       :   0.163225E+03  0.864538E-01        47.3 %
  local pseudopotentials     :   0.431000E-03  0.228284E-06         0.0 %
  non-local pseudopotentials :   0.832936E+01  0.441174E-02         2.4 %
  hartree potentials         :   0.492966E+00  0.261105E-03         0.1 %
  ion-ion interaction        :   0.359140E-01  0.190222E-04         0.0 %
  structure factors          :   0.113861E+00  0.603079E-04         0.0 %
  phase factors              :   0.399900E-05  0.211811E-08         0.0 %
  masking and packing        :   0.142033E+02  0.752296E-02         4.1 %
  queue fft                  :   0.109634E+03  0.580686E-01        31.8 %
  queue fft (serial)         :   0.440741E+02  0.233443E-01        12.8 %
  queue fft (message passing):   0.621368E+02  0.329114E-01        18.0 %
  non-local psp FFM          :   0.415006E+01  0.219813E-02         1.2 %
  non-local psp FMF          :   0.312796E+01  0.165676E-02         0.9 %
  non-local psp FFM A        :   0.875258E+00  0.463590E-03         0.3 %
  non-local psp FFM B        :   0.301734E+01  0.159817E-02         0.9 %

     >>>  JOB COMPLETED     AT Tue Apr 25 12:44:45 2023  <<<
          ****************************************************
          *                                                  *
          *               NWPW PSPW Calculation              *
          *                                                  *
          * [ (Grassmann/Stiefel manifold implementation)  ] *
          *                                                  *
          *      [ NorthWest Chemistry implementation ]      *
          *                                                  *
          *            version #5.10   06/12/02              *
          *                                                  *
          *    This code was developed by Eric J. Bylaska,   *
          *    and was based upon algorithms and code        *
          *    developed by the group of Prof. John H. Weare *
          *                                                  *
          ****************************************************
     >>>  JOB STARTED       AT Tue Apr 25 12:44:45 2023  <<<
          ================ input data ========================
 pseudopotential is not correctly formatted:Pm.vpp                                            

 Generated formatted_filename: ./perm/Pm.vpp
 - filtering pseudopotential -
 Error reading psi - bad grid
 nfft :                  108                  108                  108
 ngrid:                  140                  140                  140
 Error reading psi - bad grid
 nfft :                  108                  108                  108
 ngrid:                  140                  140                  140
 Error reading psi - bad grid

 Grid is being converted:
 ------------------------

 To turn off automatic grid conversion:

 set nwpw:psi_nogrid .false.

 old_filename: pspw-pbe-Pm1.movecs                               
 new_filename: pspw-pbe-Pm1.movecs                               
 converting  : 108x108x108 --> 140x140x140
converting .... psi:    1 spin: 1
converting .... psi:    2 spin: 1
converting .... psi:    3 spin: 1
converting .... psi:    4 spin: 1
converting .... psi:    5 spin: 1
converting .... psi:    6 spin: 1
converting .... psi:    7 spin: 1
converting .... psi:    8 spin: 1
converting .... psi:    9 spin: 1
converting .... psi:   10 spin: 1
converting .... psi:   11 spin: 1
converting .... psi:    1 spin: 2
converting .... psi:    2 spin: 2
converting .... psi:    3 spin: 2
converting .... psi:    4 spin: 2

 input psi filename:./perm/pspw-pbe-Pm1.movecs

 number of processors used:         6
 processor grid           :   6 x   1
 parallel mapping         : 2d-hcurve
 parallel mapping         :  balanced
 number of threads        :         1
 parallel io              :       off

 options:
      boundary conditions  = periodic    (version3)
      electron spin        = unrestricted
      exchange-correlation = PBE96 (White and Bird) parameterization

 elements involved in the cluster:
      1: Pm  valence charge: 15.0000  lmax=  3
             comment    : Parameterized Pm TM psp (4f5s5p5d6s6p projectors, 4/6/2022 by EJB)
             pseudpotential type            :   0
             highest angular component      :   3
             local potential used           :   2
             number of non-local projections:  22
             semicore corrections included  :  0.980 (radius)  9.185 (charge)
             cutoff =   1.648   1.868   2.103   1.403


 total charge:   0.000

 atomic composition:
     Pm  :    1

 number of electrons: spin up=    11 (  11 per task)  down=     4 (   4 per task) (Fourier space)
 number of orbitals : spin up=    11 (  11 per task)  down=     4 (   4 per task) (Fourier space)

 supercell:
      cell_name:  cell_default                                      
      lattice:    a1=<  26.000   0.000   0.000 >
                  a2=<   0.000  26.000   0.000 >
                  a3=<   0.000   0.000  26.000 >
      reciprocal: b1=<   0.242   0.000   0.000 >
                  b2=<   0.000   0.242   0.000 >
                  b3=<   0.000   0.000   0.242 >
      lattice:    a=      26.000 b=     26.000 c=      26.000
                  alpha=  90.000 beta=  90.000 gamma=  90.000
                  omega=     17576.0

      density cutoff=120.000  fft=140x140x140(   551891 waves    91981 per task)
      wavefnc cutoff= 60.000  fft=140x140x140(   195216 waves    32536 per task)
      Ewald summation: cut radius=    8.28  and  1
                       Madelung Wigner-Seitz=    1.76011888 (alpha=    2.83729748 rs=16.12911276)

 technical parameters:
      time step=      1.00     fictitious mass=  400000.0
      tolerance=0.100E-06 (energy)   0.100E-06 (density)
      maximum iterations =      1000 (   10 inner    100 outer )





== Energy Calculation ==


          ============ Grassmann lmbfgs iteration ============
     >>>  ITERATION STARTED AT Tue Apr 25 12:45:01 2023  <<<
    iter.           Energy         DeltaE       DeltaRho 
    ------------------------------------------------------
      10   -0.7583072147E+02   -0.32698E-02    0.13121E+00
     -  10 steepest descent iterations performed
      20   -0.7583683097E+02   -0.13202E-03    0.87568E-04
      30   -0.7583712244E+02   -0.33896E-04    0.82485E-04
      40   -0.7595355256E+02   -0.36453E-01    0.67029E+00
     -  10 steepest descent iterations performed
      50   -0.7643110466E+02   -0.86767E-02    0.76610E-01
      60   -0.7648848138E+02   -0.31512E-02    0.16221E-01
      70   -0.7650347079E+02   -0.10417E-02    0.35667E-02
      80   -0.7651212220E+02   -0.71882E-03    0.35197E-02
      90   -0.7651740448E+02   -0.42406E-03    0.36056E-02
     100   -0.7652114139E+02   -0.30619E-03    0.33612E-02
     110   -0.7652376514E+02   -0.21086E-03    0.29033E-02
     120   -0.7652545806E+02   -0.14828E-03    0.20538E-02
     130   -0.7652661155E+02   -0.84906E-04    0.17522E-02
     140   -0.7652731963E+02   -0.62583E-04    0.11982E-02
     150   -0.7652783950E+02   -0.46898E-04    0.11256E-02
     160   -0.7652822117E+02   -0.30075E-04    0.85154E-03
     170   -0.7652848093E+02   -0.21776E-04    0.43139E-03
     180   -0.7652868740E+02   -0.22124E-04    0.30612E-03
     -  10 steepest descent iterations performed
     190   -0.7652888691E+02   -0.28106E-04    0.53163E-04
     -  10 steepest descent iterations performed
     200   -0.7652900656E+02   -0.74534E-05    0.15567E-04
     210   -0.7652936367E+02   -0.52199E-04    0.99934E-03
     -  10 steepest descent iterations performed
     220   -0.7652950315E+02   -0.83784E-05    0.69124E-05
     230   -0.7652964904E+02   -0.21216E-04    0.11972E-03
     -  10 steepest descent iterations performed
     240   -0.7652975667E+02   -0.60359E-05    0.40616E-05
     250   -0.7652986529E+02   -0.15573E-04    0.69859E-04
     -  10 steepest descent iterations performed
     260   -0.7652996978E+02   -0.77719E-05    0.53168E-05
     270   -0.7653007039E+02   -0.12703E-04    0.61274E-04
     -  10 steepest descent iterations performed
     280   -0.7653016814E+02   -0.62600E-05    0.39734E-05
     290   -0.7653026286E+02   -0.11825E-04    0.49581E-04
     -  10 steepest descent iterations performed
     300   -0.7653035492E+02   -0.75039E-05    0.45876E-05
     310   -0.7653044055E+02   -0.98322E-05    0.43280E-04
     -  10 steepest descent iterations performed
     320   -0.7653052343E+02   -0.56998E-05    0.32987E-05
     330   -0.7653060153E+02   -0.90279E-05    0.34895E-04
     -  10 steepest descent iterations performed
     340   -0.7653067677E+02   -0.64711E-05    0.35490E-05
     350   -0.7653074477E+02   -0.73769E-05    0.29439E-04
     -  10 steepest descent iterations performed
     360   -0.7653080991E+02   -0.46829E-05    0.24618E-05
     370   -0.7653086997E+02   -0.66078E-05    0.23350E-04
     -  10 steepest descent iterations performed
     380   -0.7653092723E+02   -0.50958E-05    0.25162E-05
     390   -0.7653097787E+02   -0.53072E-05    0.19005E-04
     -  10 steepest descent iterations performed
     400   -0.7653102600E+02   -0.35650E-05    0.16831E-05
     410   -0.7653106980E+02   -0.46828E-05    0.14917E-04
     -  10 steepest descent iterations performed
     420   -0.7653111132E+02   -0.37831E-05    0.16930E-05
     430   -0.7653114760E+02   -0.37314E-05    0.11952E-04
     440   -0.7653145309E+02   -0.73135E-05    0.12674E-02
     -  10 steepest descent iterations performed
     450   -0.7653148706E+02   -0.24232E-05    0.94283E-06
     460   -0.7653149359E+02   -0.66974E-06    0.13237E-05
     470   -0.7653151403E+02   -0.17698E-05    0.36689E-04
     -  10 steepest descent iterations performed
     480   -0.7653152999E+02   -0.10787E-05    0.68574E-06
     490   -0.7653153565E+02   -0.59409E-06    0.13357E-05
     500   -0.7653155492E+02   -0.20317E-05    0.38839E-04
     -  10 steepest descent iterations performed
     510   -0.7653157138E+02   -0.14430E-05    0.75055E-06
     520   -0.7653157748E+02   -0.63589E-06    0.16510E-05
     530   -0.7653159073E+02   -0.11008E-05    0.19559E-04
     -  10 steepest descent iterations performed
     540   -0.7653160195E+02   -0.92747E-06    0.83552E-06
     550   -0.7653160856E+02   -0.71360E-06    0.26184E-05
     560   -0.7653162375E+02   -0.14039E-05    0.28912E-04
     -  10 steepest descent iterations performed
     570   -0.7653163683E+02   -0.13784E-05    0.10172E-05
     580   -0.7653164438E+02   -0.75505E-06    0.27914E-05
     590   -0.7653165536E+02   -0.83909E-06    0.13567E-04
     -  10 steepest descent iterations performed
     600   -0.7653166484E+02   -0.93438E-06    0.93573E-06
     -  10 steepest descent iterations performed
     610   -0.7653166932E+02   -0.48332E-06    0.56363E-06
     620   -0.7653168642E+02   -0.29098E-05    0.38671E-04
     -  10 steepest descent iterations performed
     630   -0.7653169873E+02   -0.98213E-06    0.70714E-06
     640   -0.7653170668E+02   -0.77411E-06    0.34148E-05
     650   -0.7653171774E+02   -0.71239E-06    0.13504E-04
     660   -0.7653178806E+02   -0.11622E-04    0.80653E-03
     -  10 steepest descent iterations performed
     670   -0.7653183376E+02   -0.29327E-05    0.22845E-05
     680   -0.7653185427E+02   -0.13194E-05    0.55598E-05
     690   -0.7653186075E+02   -0.31507E-06    0.15057E-05
     700   -0.7653186801E+02   -0.69163E-06    0.47498E-05
     -  10 steepest descent iterations performed
     710   -0.7653187350E+02   -0.51629E-06    0.42596E-06
     720   -0.7653188080E+02   -0.11251E-05    0.42341E-05
     -  10 steepest descent iterations performed
     730   -0.7653188558E+02   -0.36701E-06    0.20293E-06
     740   -0.7653189099E+02   -0.50880E-06    0.22740E-05
     -  10 steepest descent iterations performed
     750   -0.7653189563E+02   -0.46557E-06    0.21750E-06
     760   -0.7653190052E+02   -0.58053E-06    0.19192E-05
     -  10 steepest descent iterations performed
     770   -0.7653190500E+02   -0.35285E-06    0.18558E-06
     780   -0.7653190983E+02   -0.41694E-06    0.18434E-05
     -  10 steepest descent iterations performed
     790   -0.7653191432E+02   -0.46334E-06    0.21227E-06
     -  10 steepest descent iterations performed
     800   -0.7653191676E+02   -0.31127E-06    0.26233E-06
     810   -0.7653195438E+02   -0.80316E-05    0.19553E-03
     -  10 steepest descent iterations performed
     820   -0.7653198703E+02   -0.14532E-05    0.44823E-06
     830   -0.7653199040E+02   -0.25158E-06    0.22116E-06
     840   -0.7653199560E+02   -0.56216E-06    0.26576E-05
     -  10 steepest descent iterations performed
     850   -0.7653200057E+02   -0.49804E-06    0.23240E-06
     860   -0.7653200395E+02   -0.47292E-06    0.90509E-06
     870   -0.7653202496E+02   -0.25095E-05    0.68401E-04
     -  10 steepest descent iterations performed
     880   -0.7653204397E+02   -0.87156E-06    0.30719E-06
     890   -0.7653204712E+02   -0.30538E-06    0.22100E-06
     900   -0.7653205060E+02   -0.23930E-06    0.11901E-05
     910   -0.7653210682E+02   -0.75629E-05    0.58645E-03
     -  10 steepest descent iterations performed
     920   -0.7653213454E+02   -0.97078E-06    0.37451E-06
     930   -0.7653214218E+02   -0.33342E-06    0.47814E-06
     940   -0.7653214470E+02   -0.13946E-06    0.27394E-06
     950   -0.7653214667E+02   -0.21987E-06    0.96010E-06
     -  10 steepest descent iterations performed
     960   -0.7653214686E+02   -0.89034E-07    0.10157E-09
  *** tolerance ok. iteration terminated
     >>>  ITERATION ENDED   AT Tue Apr 25 13:12:03 2023  <<<


==  Summary Of Results  ==

 number of electrons: spin up=   11.00000  down=    4.00000 (real space)

 total     energy    :  -0.7653214686E+02 (   -0.76532E+02/ion)
 total orbital energy:  -0.8917702649E+01 (   -0.59451E+00/electron)
 hartree   energy    :   0.4837868336E+02 (    0.32252E+01/electron)
 exc-corr  energy    :  -0.1953856770E+02 (   -0.13026E+01/electron)
 ion-ion   energy    :  -0.1227676794E+02 (   -0.12277E+02/ion)

 kinetic (planewave) :   0.6045904311E+02 (    0.40306E+01/electron)
 V_local (planewave) :  -0.1120787702E+03 (   -0.74719E+01/electron)
 V_nl    (planewave) :  -0.4147576745E+02 (   -0.27651E+01/electron)
 V_Coul  (planewave) :   0.9675736672E+02 (    0.64505E+01/electron)
 V_xc.   (planewave) :  -0.1257957480E+02 (   -0.83864E+00/electron)
 Virial Coefficient  :  -0.1147499897E+01

 orbital energies:
    -0.8390249E-01 (  -2.283eV)
    -0.8557140E-01 (  -2.329eV)
    -0.1307593E+00 (  -3.558eV)
    -0.1537034E+00 (  -4.183eV)
    -0.1544814E+00 (  -4.204eV)
    -0.1576608E+00 (  -4.290eV)
    -0.1661744E+00 (  -4.522eV)
    -0.8569124E+00 ( -23.318eV)    -0.7759932E+00 ( -21.116eV)
    -0.8581663E+00 ( -23.352eV)    -0.7805273E+00 ( -21.239eV)
    -0.8604638E+00 ( -23.415eV)    -0.7859120E+00 ( -21.386eV)
    -0.1581179E+01 ( -43.026eV)    -0.1486296E+01 ( -40.444eV)

 Total PSPW energy     :  -0.7653214686E+02


=== Spin Contamination ===

 <Sexact^2> =    15.750000000000000     
 <S^2>      =    15.752236086550043     



== Center of Charge ==

spin up     (   -0.0015,    0.0001,   -0.0015 )
spin down   (    0.0058,    0.0011,    0.0014 )
     total  (    0.0005,    0.0004,   -0.0007 )
ionic       (    0.0000,    0.0000,    0.0000 )


== Molecular Dipole wrt Center of Mass ==

mu   =  (   -0.0068,   -0.0058,    0.0108 ) au
|mu| =     0.0140 au,       0.0355 Debye

 output psi filename:./perm/pspw-pbe-Pm1.movecs

 Writing Crystallographic Information File:./perm/Pm1.cif
   - cell not shifted (nwpw:cif_shift_cell .false.)


== Timing ==

cputime in seconds
  prologue    :   0.156763E+02
  main loop   :   0.162219E+04
  epilogue    :   0.455978E+00
  total       :   0.163832E+04
  cputime/step:   0.655959E+00       (    2473 evalulations,     951 linesearches)


Time spent doing                        total          step       percent
  total time                 :   0.163832E+04  0.662483E+00       100.0 %
  i/o time                   :   0.152633E+02  0.617197E-02         0.9 %
  FFTs                       :   0.527792E+03  0.213422E+00        32.2 %
  dot products               :   0.912806E+02  0.369109E-01         5.6 %
  geodesic                   :   0.930598E+02  0.376303E-01         5.7 %
  ffm_dgemm                  :   0.128530E+02  0.519733E-02         0.8 %
  fmf_dgemm                  :   0.290772E+02  0.117579E-01         1.8 %
  mmm_dgemm                  :   0.213853E+01  0.864751E-03         0.1 %
  m_diagonalize              :   0.218003E+00  0.881533E-04         0.0 %
  exchange correlation       :   0.759933E+03  0.307292E+00        46.4 %
  local pseudopotentials     :   0.732000E-03  0.295997E-06         0.0 %
  non-local pseudopotentials :   0.271818E+02  0.109914E-01         1.7 %
  hartree potentials         :   0.254360E+01  0.102855E-02         0.2 %
  ion-ion interaction        :   0.178622E+00  0.722289E-04         0.0 %
  structure factors          :   0.279042E+00  0.112835E-03         0.0 %
  phase factors              :   0.399900E-05  0.161706E-08         0.0 %
  masking and packing        :   0.867578E+02  0.350820E-01         5.3 %
  queue fft                  :   0.560219E+03  0.226534E+00        34.2 %
  queue fft (serial)         :   0.215858E+03  0.872860E-01        13.2 %
  queue fft (message passing):   0.335274E+03  0.135574E+00        20.5 %
  non-local psp FFM          :   0.155563E+02  0.629047E-02         0.9 %
  non-local psp FMF          :   0.904363E+01  0.365695E-02         0.6 %
  non-local psp FFM A        :   0.208184E+01  0.841830E-03         0.1 %
  non-local psp FFM B        :   0.819905E+01  0.331543E-02         0.5 %

     >>>  JOB COMPLETED     AT Tue Apr 25 13:12:03 2023  <<<
          ****************************************************
          *                                                  *
          *               NWPW PSPW Calculation              *
          *                                                  *
          * [ (Grassmann/Stiefel manifold implementation)  ] *
          *                                                  *
          *      [ NorthWest Chemistry implementation ]      *
          *                                                  *
          *            version #5.10   06/12/02              *
          *                                                  *
          *    This code was developed by Eric J. Bylaska,   *
          *    and was based upon algorithms and code        *
          *    developed by the group of Prof. John H. Weare *
          *                                                  *
          ****************************************************
     >>>  JOB STARTED       AT Tue Apr 25 13:12:03 2023  <<<
          ================ input data ========================
 pseudopotential is not correctly formatted:Pm.vpp                                            

 Generated formatted_filename: ./perm/Pm.vpp
 - filtering pseudopotential -
 Error reading psi - bad grid
 nfft :                  140                  140                  140
 ngrid:                  150                  150                  150
 Error reading psi - bad grid
 nfft :                  140                  140                  140
 ngrid:                  150                  150                  150
 Error reading psi - bad grid

 Grid is being converted:
 ------------------------

 To turn off automatic grid conversion:

 set nwpw:psi_nogrid .false.

 old_filename: pspw-pbe-Pm1.movecs                               
 new_filename: pspw-pbe-Pm1.movecs                               
 converting  : 140x140x140 --> 150x150x150
converting .... psi:    1 spin: 1
converting .... psi:    2 spin: 1
converting .... psi:    3 spin: 1
converting .... psi:    4 spin: 1
converting .... psi:    5 spin: 1
converting .... psi:    6 spin: 1
converting .... psi:    7 spin: 1
converting .... psi:    8 spin: 1
converting .... psi:    9 spin: 1
converting .... psi:   10 spin: 1
converting .... psi:   11 spin: 1
converting .... psi:    1 spin: 2
converting .... psi:    2 spin: 2
converting .... psi:    3 spin: 2
converting .... psi:    4 spin: 2

 input psi filename:./perm/pspw-pbe-Pm1.movecs

 number of processors used:         6
 processor grid           :   6 x   1
 parallel mapping         : 2d-hcurve
 parallel mapping         :  balanced
 number of threads        :         1
 parallel io              :       off

 options:
      boundary conditions  = periodic    (version3)
      electron spin        = unrestricted
      exchange-correlation = PBE96 (White and Bird) parameterization

 elements involved in the cluster:
      1: Pm  valence charge: 15.0000  lmax=  3
             comment    : Parameterized Pm TM psp (4f5s5p5d6s6p projectors, 4/6/2022 by EJB)
             pseudpotential type            :   0
             highest angular component      :   3
             local potential used           :   2
             number of non-local projections:  22
             semicore corrections included  :  0.980 (radius)  9.185 (charge)
             cutoff =   1.648   1.868   2.103   1.403


 total charge:   0.000

 atomic composition:
     Pm  :    1

 number of electrons: spin up=    11 (  11 per task)  down=     4 (   4 per task) (Fourier space)
 number of orbitals : spin up=    11 (  11 per task)  down=     4 (   4 per task) (Fourier space)

 supercell:
      cell_name:  cell_default                                      
      lattice:    a1=<  26.000   0.000   0.000 >
                  a2=<   0.000  26.000   0.000 >
                  a3=<   0.000   0.000  26.000 >
      reciprocal: b1=<   0.242   0.000   0.000 >
                  b2=<   0.000   0.242   0.000 >
                  b3=<   0.000   0.000   0.242 >
      lattice:    a=      26.000 b=     26.000 c=      26.000
                  alpha=  90.000 beta=  90.000 gamma=  90.000
                  omega=     17576.0

      density cutoff=160.000  fft=150x150x150(   849355 waves   141560 per task)
      wavefnc cutoff= 80.000  fft=150x150x150(   300163 waves    50027 per task)
      Ewald summation: cut radius=    8.28  and  1
                       Madelung Wigner-Seitz=    1.76011888 (alpha=    2.83729748 rs=16.12911276)

 technical parameters:
      time step=      1.00     fictitious mass=  400000.0
      tolerance=0.100E-06 (energy)   0.100E-06 (density)
      maximum iterations =      1000 (   10 inner    100 outer )





== Energy Calculation ==


          ============ Grassmann lmbfgs iteration ============
     >>>  ITERATION STARTED AT Tue Apr 25 13:12:24 2023  <<<
    iter.           Energy         DeltaE       DeltaRho 
    ------------------------------------------------------
      10   -0.7684094680E+02   -0.35853E-03    0.10716E-01
      20   -0.7684403094E+02   -0.32845E-03    0.15588E-02
      30   -0.7684712316E+02   -0.24176E-03    0.26396E-02
      40   -0.7684845902E+02   -0.70105E-04    0.49150E-03
      50   -0.7684886117E+02   -0.25247E-04    0.69218E-04
      60   -0.7684904269E+02   -0.14773E-04    0.43733E-04
      70   -0.7684917516E+02   -0.12488E-04    0.70925E-04
      80   -0.7684930057E+02   -0.12866E-04    0.13508E-03
     -  10 steepest descent iterations performed
      90   -0.7684935668E+02   -0.47585E-05    0.33240E-05
     100   -0.7684940941E+02   -0.61011E-05    0.33057E-04
     -  10 steepest descent iterations performed
     110   -0.7684944269E+02   -0.32525E-05    0.37612E-05
     120   -0.7684948143E+02   -0.47034E-05    0.40286E-04
     -  10 steepest descent iterations performed
     130   -0.7684951540E+02   -0.29485E-05    0.28457E-05
     140   -0.7684954378E+02   -0.28008E-05    0.21062E-04
     150   -0.7684972407E+02   -0.21807E-04    0.16598E-02
     -  10 steepest descent iterations performed
     160   -0.7684984427E+02   -0.75106E-05    0.36882E-05
     170   -0.7684986511E+02   -0.16035E-05    0.27649E-05
     180   -0.7684988513E+02   -0.17945E-05    0.18942E-04
     -  10 steepest descent iterations performed
     190   -0.7684990297E+02   -0.18240E-05    0.23370E-05
     -  10 steepest descent iterations performed
     200   -0.7684991323E+02   -0.13963E-05    0.27275E-05
     210   -0.7684999709E+02   -0.17964E-04    0.65989E-03
     -  10 steepest descent iterations performed
     220   -0.7685006535E+02   -0.24892E-05    0.11102E-05
     230   -0.7685007924E+02   -0.11512E-05    0.29349E-05
     240   -0.7685010037E+02   -0.17812E-05    0.27611E-04
     -  10 steepest descent iterations performed
     250   -0.7685011802E+02   -0.22307E-05    0.24921E-05
     -  10 steepest descent iterations performed
     260   -0.7685012628E+02   -0.72989E-06    0.12945E-05
     270   -0.7685017511E+02   -0.13187E-04    0.26505E-03
     -  10 steepest descent iterations performed
     280   -0.7685021296E+02   -0.15050E-05    0.57146E-06
     290   -0.7685022488E+02   -0.11716E-05    0.38369E-05
     300   -0.7685024193E+02   -0.79168E-06    0.20042E-04
     310   -0.7685031536E+02   -0.74150E-05    0.72543E-03
     -  10 steepest descent iterations performed
     320   -0.7685036829E+02   -0.13990E-05    0.73981E-06
     330   -0.7685038182E+02   -0.12629E-05    0.13053E-05
     340   -0.7685038994E+02   -0.58049E-06    0.22160E-05
     350   -0.7685040223E+02   -0.22610E-05    0.22167E-04
     -  10 steepest descent iterations performed
     360   -0.7685041328E+02   -0.75721E-06    0.34283E-06
     370   -0.7685042093E+02   -0.10122E-05    0.39026E-05
     -  10 steepest descent iterations performed
     380   -0.7685042549E+02   -0.37654E-06    0.30379E-06
     390   -0.7685043367E+02   -0.12707E-05    0.10063E-04
     -  10 steepest descent iterations performed
     400   -0.7685044106E+02   -0.42166E-06    0.35140E-06
     410   -0.7685044543E+02   -0.56202E-06    0.24830E-05
     -  10 steepest descent iterations performed
     420   -0.7685044958E+02   -0.32407E-06    0.28507E-06
     430   -0.7685045627E+02   -0.99361E-06    0.81272E-05
     -  10 steepest descent iterations performed
     440   -0.7685046283E+02   -0.38099E-06    0.33057E-06
     450   -0.7685046661E+02   -0.47183E-06    0.22617E-05
     -  10 steepest descent iterations performed
     460   -0.7685047039E+02   -0.30999E-06    0.27679E-06
     470   -0.7685047643E+02   -0.86316E-06    0.74580E-05
     -  10 steepest descent iterations performed
     480   -0.7685048239E+02   -0.36570E-06    0.33476E-06
     490   -0.7685048583E+02   -0.41348E-06    0.21060E-05
     -  10 steepest descent iterations performed
     500   -0.7685048931E+02   -0.29953E-06    0.27486E-06
     510   -0.7685049483E+02   -0.76215E-06    0.69938E-05
     -  10 steepest descent iterations performed
     520   -0.7685050031E+02   -0.35506E-06    0.34012E-06
     530   -0.7685050347E+02   -0.36683E-06    0.19981E-05
     -  10 steepest descent iterations performed
     540   -0.7685050670E+02   -0.29148E-06    0.27565E-06
     550   -0.7685051179E+02   -0.67923E-06    0.66573E-05
     -  10 steepest descent iterations performed
     560   -0.7685051688E+02   -0.34524E-06    0.34470E-06
     570   -0.7685051981E+02   -0.32865E-06    0.19164E-05
     580   -0.7685058997E+02   -0.64357E-05    0.19320E-02
     -  10 steepest descent iterations performed
     590   -0.7685063630E+02   -0.22973E-05    0.60519E-06
     600   -0.7685063948E+02   -0.20446E-06    0.38126E-06
     610   -0.7685064174E+02   -0.28243E-06    0.22965E-05
     -  10 steepest descent iterations performed
     620   -0.7685064403E+02   -0.22245E-06    0.40574E-06
     630   -0.7685064743E+02   -0.59617E-06    0.71547E-05
     -  10 steepest descent iterations performed
     640   -0.7685065069E+02   -0.25802E-06    0.30528E-06
     650   -0.7685065301E+02   -0.23289E-06    0.22350E-05
     660   -0.7685067550E+02   -0.40641E-05    0.44115E-03
     -  10 steepest descent iterations performed
     670   -0.7685069734E+02   -0.95420E-06    0.39828E-06
     680   -0.7685070048E+02   -0.17758E-06    0.43160E-06
     690   -0.7685070355E+02   -0.26627E-06    0.46777E-05
     -  10 steepest descent iterations performed
     700   -0.7685070666E+02   -0.26849E-06    0.61601E-06
     -  10 steepest descent iterations performed
     710   -0.7685070684E+02   -0.95929E-07    0.29661E-09
  *** tolerance ok. iteration terminated
     >>>  ITERATION ENDED   AT Tue Apr 25 13:28:41 2023  <<<


==  Summary Of Results  ==

 number of electrons: spin up=   11.00000  down=    4.00000 (real space)

 total     energy    :  -0.7685070684E+02 (   -0.76851E+02/ion)
 total orbital energy:  -0.8234443469E+01 (   -0.54896E+00/electron)
 hartree   energy    :   0.4938879330E+02 (    0.32926E+01/electron)
 exc-corr  energy    :  -0.1973249841E+02 (   -0.13155E+01/electron)
 ion-ion   energy    :  -0.1227676794E+02 (   -0.12277E+02/ion)

 kinetic (planewave) :   0.6480713428E+02 (    0.43205E+01/electron)
 V_local (planewave) :  -0.1132255752E+03 (   -0.75484E+01/electron)
 V_nl    (planewave) :  -0.4581179282E+02 (   -0.30541E+01/electron)
 V_Coul  (planewave) :   0.9877758661E+02 (    0.65852E+01/electron)
 V_xc.   (planewave) :  -0.1278179628E+02 (   -0.85212E+00/electron)
 Virial Coefficient  :  -0.1127060756E+01

 orbital energies:
    -0.6522203E-01 (  -1.775eV)
    -0.6895572E-01 (  -1.876eV)
    -0.7353462E-01 (  -2.001eV)
    -0.9796399E-01 (  -2.666eV)
    -0.1084452E+00 (  -2.951eV)
    -0.1181389E+00 (  -3.215eV)
    -0.1330529E+00 (  -3.621eV)
    -0.8082443E+00 ( -21.994eV)    -0.7278516E+00 ( -19.806eV)
    -0.8097746E+00 ( -22.035eV)    -0.7337773E+00 ( -19.967eV)
    -0.8124249E+00 ( -22.107eV)    -0.7378831E+00 ( -20.079eV)
    -0.1518162E+01 ( -41.312eV)    -0.1421012E+01 ( -38.668eV)

 Total PSPW energy     :  -0.7685070684E+02


=== Spin Contamination ===

 <Sexact^2> =    15.750000000000000     
 <S^2>      =    15.753387615667922     



== Center of Charge ==

spin up     (    0.0001,    0.0001,   -0.0001 )
spin down   (    0.0001,    0.0000,   -0.0000 )
     total  (    0.0001,    0.0001,   -0.0001 )
ionic       (    0.0000,    0.0000,    0.0000 )


== Molecular Dipole wrt Center of Mass ==

mu   =  (   -0.0014,   -0.0010,    0.0012 ) au
|mu| =     0.0021 au,       0.0053 Debye

 output psi filename:./perm/pspw-pbe-Pm1.movecs

 Writing Crystallographic Information File:./perm/Pm1.cif
   - cell not shifted (nwpw:cif_shift_cell .false.)


== Timing ==

cputime in seconds
  prologue    :   0.206573E+02
  main loop   :   0.976879E+03
  epilogue    :   0.554738E+00
  total       :   0.998091E+03
  cputime/step:   0.528900E+00       (    1847 evalulations,     701 linesearches)


Time spent doing                        total          step       percent
  total time                 :   0.998093E+03  0.540386E+00       100.0 %
  i/o time                   :   0.200931E+02  0.108788E-01         2.0 %
  FFTs                       :   0.231426E+03  0.125298E+00        23.2 %
  dot products               :   0.230019E+02  0.124536E-01         2.3 %
  geodesic                   :   0.411181E+02  0.222621E-01         4.1 %
  ffm_dgemm                  :   0.711283E+01  0.385102E-02         0.7 %
  fmf_dgemm                  :   0.332772E+02  0.180169E-01         3.3 %
  mmm_dgemm                  :   0.514765E-01  0.278703E-04         0.0 %
  m_diagonalize              :   0.230574E-01  0.124837E-04         0.0 %
  exchange correlation       :   0.461471E+03  0.249849E+00        46.2 %
  local pseudopotentials     :   0.105200E-02  0.569572E-06         0.0 %
  non-local pseudopotentials :   0.242044E+02  0.131047E-01         2.4 %
  hartree potentials         :   0.135349E+01  0.732806E-03         0.1 %
  ion-ion interaction        :   0.968560E-01  0.524396E-04         0.0 %
  structure factors          :   0.298494E+00  0.161610E-03         0.0 %
  phase factors              :   0.400000E-05  0.216567E-08         0.0 %
  masking and packing        :   0.407018E+02  0.220367E-01         4.1 %
  queue fft                  :   0.330553E+03  0.178967E+00        33.1 %
  queue fft (serial)         :   0.129024E+03  0.698562E-01        12.9 %
  queue fft (message passing):   0.191971E+03  0.103937E+00        19.2 %
  non-local psp FFM          :   0.121630E+02  0.658528E-02         1.2 %
  non-local psp FMF          :   0.919910E+01  0.498056E-02         0.9 %
  non-local psp FFM A        :   0.246130E+01  0.133259E-02         0.2 %
  non-local psp FFM B        :   0.920787E+01  0.498531E-02         0.9 %

     >>>  JOB COMPLETED     AT Tue Apr 25 13:28:41 2023  <<<

 Task  times  cpu:     3029.2s     wall:     3029.2s


                                NWChem Input Module
                                -------------------


 Summary of allocated global arrays
-----------------------------------
  No active global arrays


MA_summarize_allocated_blocks: starting scan ...
MA_summarize_allocated_blocks: scan completed: 0 heap blocks, 0 stack blocks
MA usage statistics:

	allocation statistics:
					      heap	     stack
					      ----	     -----
	current number of blocks	         0	         0
	maximum number of blocks	       277	        21
	current total bytes		         0	         0
	maximum total bytes		 490006936	 124337832
	maximum total K-bytes		    490007	    124338
	maximum total M-bytes		       491	       125


                                     CITATION
                                     --------
                Please cite the following reference when publishing
                           results obtained with NWChem:

          E. Apra, E. J. Bylaska, W. A. de Jong, N. Govind, K. Kowalski,
       T. P. Straatsma, M. Valiev, H. J. J. van Dam, Y. Alexeev, J. Anchell,
       V. Anisimov, F. W. Aquino, R. Atta-Fynn, J. Autschbach, N. P. Bauman,
     J. C. Becca, D. E. Bernholdt, K. Bhaskaran-Nair, S. Bogatko, P. Borowski,
         J. Boschen, J. Brabec, A. Bruner, E. Cauet, Y. Chen, G. N. Chuev,
      C. J. Cramer, J. Daily, M. J. O. Deegan, T. H. Dunning Jr., M. Dupuis,
   K. G. Dyall, G. I. Fann, S. A. Fischer, A. Fonari, H. Fruchtl, L. Gagliardi,
      J. Garza, N. Gawande, S. Ghosh, K. Glaesemann, A. W. Gotz, J. Hammond,
       V. Helms, E. D. Hermes, K. Hirao, S. Hirata, M. Jacquelin, L. Jensen,
   B. G. Johnson, H. Jonsson, R. A. Kendall, M. Klemm, R. Kobayashi, V. Konkov,
      S. Krishnamoorthy, M. Krishnan, Z. Lin, R. D. Lins, R. J. Littlefield,
      A. J. Logsdail, K. Lopata, W. Ma, A. V. Marenich, J. Martin del Campo,
   D. Mejia-Rodriguez, J. E. Moore, J. M. Mullin, T. Nakajima, D. R. Nascimento,
    J. A. Nichols, P. J. Nichols, J. Nieplocha, A. Otero-de-la-Roza, B. Palmer,
    A. Panyala, T. Pirojsirikul, B. Peng, R. Peverati, J. Pittner, L. Pollack,
   R. M. Richard, P. Sadayappan, G. C. Schatz, W. A. Shelton, D. W. Silverstein,
   D. M. A. Smith, T. A. Soares, D. Song, M. Swart, H. L. Taylor, G. S. Thomas,
            V. Tipparaju, D. G. Truhlar, K. Tsemekhman, T. Van Voorhis,
      A. Vazquez-Mayagoitia, P. Verma, O. Villa, A. Vishnu, K. D. Vogiatzis,
        D. Wang, J. H. Weare, M. J. Williamson, T. L. Windus, K. Wolinski,
        A. T. Wong, Q. Wu, C. Yang, Q. Yu, M. Zacharias, Z. Zhang, Y. Zhao,
                                and R. J. Harrison
                        "NWChem: Past, present, and future
                         J. Chem. Phys. 152, 184102 (2020)
                               doi:10.1063/5.0004997

                                      AUTHORS
                                      -------
  E. Apra, E. J. Bylaska, N. Govind, K. Kowalski, M. Valiev, D. Mejia-Rodriguez,
       A. Kunitsa, N. P. Bauman, A. Panyala, W. A. de Jong, T. P. Straatsma,
   H. J. J. van Dam, D. Wang, T. L. Windus, J. Hammond, J. Autschbach, A. Woods,
    K. Bhaskaran-Nair, J. Brabec, K. Lopata, S. A. Fischer, S. Krishnamoorthy,
     M. Jacquelin, W. Ma, M. Klemm, O. Villa, Y. Chen, V. Anisimov, F. Aquino,
     S. Hirata, M. T. Hackler, E. Hermes, L. Jensen, J. E. Moore, J. C. Becca,
      V. Konjkov, T. Risthaus, M. Malagoli, A. Marenich, A. Otero-de-la-Roza,
        J. Mullin, P. Nichols, R. Peverati, J. Pittner, Y. Zhao, P.-D. Fan,
        A. Fonari, M. J. Williamson, R. J. Harrison, J. R. Rehr, M. Dupuis,
     D. Silverstein, D. M. A. Smith, J. Nieplocha, V. Tipparaju, M. Krishnan,
     B. E. Van Kuiken, A. Vazquez-Mayagoitia, M. Swart, Q. Wu, T. Van Voorhis,
     A. A. Auer, M. Nooijen, L. D. Crosby, E. Brown, G. Cisneros, G. I. Fann,
   H. Fruchtl, J. Garza, K. Hirao, R. A. Kendall, J. A. Nichols, K. Tsemekhman,
    K. Wolinski, J. Anchell, D. E. Bernholdt, P. Borowski, T. Clark, D. Clerc,
   H. Dachsel, M. J. O. Deegan, K. Dyall, D. Elwood, E. Glendening, M. Gutowski,
   A. C. Hess, J. Jaffe, B. G. Johnson, J. Ju, R. Kobayashi, R. Kutteh, Z. Lin,
   R. Littlefield, X. Long, B. Meng, T. Nakajima, S. Niu, L. Pollack, M. Rosing,
   K. Glaesemann, G. Sandrone, M. Stave, H. Taylor, G. Thomas, J. H. van Lenthe,
                               A. T. Wong, Z. Zhang.

 Total times  cpu:     3029.2s     wall:     3029.2s
