 argument  1 = Tb1.nw



============================== echo of input deck ==============================
title "swnc: e theory=pspw xc=pbe formula=H130O65tb1 charge=0 mult=3"
#machinejob:expert

permanent_dir ./perm
scratch_dir   ./perm

echo

start pspw-pbe-Tb1

memory 2300 mb

charge 0

geometry
Tb 0.0 0.0 0.0
end


nwpw
  simulation_cell
     SC 26.0
     #boundary_conditions aperiodic
  end

  ### pseudopotential block begin ###
  ### pseudopotential block end   ###
  2d-hcurve
  time_step 1.0
  cutoff 80.0
  lmbfgs

  mult 8
  xc pbe96

end
set nwpw:kbpp_ray    .true.
set nwpw:kbpp_filter .true.
#set nwpw:gram-schmidt .true.
set nwpw:cif_filename Tb1

#task pspw steepest_descent
task pspw energy ignore

================================================================================


                                         
                                         


             Northwest Computational Chemistry Package (NWChem) 7.2.0
             --------------------------------------------------------


                    Environmental Molecular Sciences Laboratory
                       Pacific Northwest National Laboratory
                                Richland, WA 99352

                              Copyright (c) 1994-2022
                       Pacific Northwest National Laboratory
                            Battelle Memorial Institute

             NWChem is an open-source computational chemistry package
                        distributed under the terms of the
                      Educational Community License (ECL) 2.0
             A copy of the license is included with this distribution
                              in the LICENSE.TXT file

                                  ACKNOWLEDGMENT
                                  --------------

            This software and its documentation were developed at the
            EMSL at Pacific Northwest National Laboratory, a multiprogram
            national laboratory, operated for the U.S. Department of Energy
            by Battelle under Contract Number DE-AC05-76RL01830. Support
            for this work was provided by the Department of Energy Office
            of Biological and Environmental Research, Office of Basic
            Energy Sciences, and the Office of Advanced Scientific Computing.


           Job information
           ---------------

    hostname        = Erics-MacBook-Pro.local
    program         = nwchem
    date            = Tue Apr 25 13:52:29 2023

    compiled        = Mon_Mar_27_19:09:42_2023
    source          = /Users/bylaska/nwchem-releases/nwchem
    nwchem branch   = 7.2.0
    nwchem revision = v7.2.0-beta1-380-gdf1eef5276
    ga revision     = 5.8.0
    use scalapack   = F
    input           = Tb1.nw
    prefix          = pspw-pbe-Tb1.
    data base       = ./perm/pspw-pbe-Tb1.db
    status          = startup
    nproc           =        6
    time left       =     -1s



           Memory information
           ------------------

    heap     =   75366396 doubles =    575.0 Mbytes
    stack    =   75366401 doubles =    575.0 Mbytes
    global   =  150732800 doubles =   1150.0 Mbytes (distinct from heap & stack)
    total    =  301465597 doubles =   2300.0 Mbytes
    verify   = yes
    hardfail = no 


           Directory information
           ---------------------

  0 permanent = ./perm
  0 scratch   = ./perm




                                NWChem Input Module
                                -------------------


           swnc: e theory=pspw xc=pbe formula=H130O65tb1 charge=0 mult=3
           -------------------------------------------------------------

 Scaling coordinates for geometry "geometry" by  1.889725989
 (inverse scale =  0.529177249)



                             Geometry "geometry" -> ""
                             -------------------------

 Output coordinates in angstroms (scale by  1.889725989 to convert to a.u.)

  No.       Tag          Charge          X              Y              Z
 ---- ---------------- ---------- -------------- -------------- --------------
    1 Tb                  65.0000     0.00000000     0.00000000     0.00000000

      Atomic Mass 
      ----------- 

      Tb               159.925000


 Effective nuclear repulsion energy (a.u.)       0.0000000000

            Nuclear Dipole moment (a.u.) 
            ----------------------------
        X                 Y               Z
 ---------------- ---------------- ----------------
     0.0000000000     0.0000000000     0.0000000000


            XYZ format geometry
            -------------------
     1
 geometry
 Tb                    0.00000000     0.00000000     0.00000000

          ****************************************************
          *                                                  *
          *               NWPW PSPW Calculation              *
          *                                                  *
          * [ (Grassmann/Stiefel manifold implementation)  ] *
          *                                                  *
          *      [ NorthWest Chemistry implementation ]      *
          *                                                  *
          *            version #5.10   06/12/02              *
          *                                                  *
          *    This code was developed by Eric J. Bylaska,   *
          *    and was based upon algorithms and code        *
          *    developed by the group of Prof. John H. Weare *
          *                                                  *
          ****************************************************
     >>>  JOB STARTED       AT Tue Apr 25 13:52:29 2023  <<<
          ================ input data ========================
  library name resolved from: compiled reference
  NWCHEM_NWPW_LIBRARY set to: </Users/bylaska/nwchem-releases/nwchem/src/nwpw/libraryps/>
 Generating 1d pseudopotential for Tb  

 Generated formatted_filename: ./perm/Tb.vpp
 - filtering pseudopotential -
 random planewave guess, initial psi:pspw-pbe-Tb1.movecs                               
 -   spin, nalpha, nbeta:                    2                   13                    6

 input psi filename:./perm/pspw-pbe-Tb1.movecs

 Warning - K.S. orbitals are not orthonormal. Applying Gram-Schmidt orthonormalization.
         - exact norm=0.190000E+02 norm=0.122166E+02 corrected norm=0.190000E+02 (error=0.678342E+01)


 number of processors used:         6
 processor grid           :   6 x   1
 parallel mapping         : 2d-hcurve
 parallel mapping         :  balanced
 number of threads        :         1
 parallel io              :       off

 options:
      boundary conditions  = periodic    (version3)
      electron spin        = unrestricted
      exchange-correlation = PBE96 (White and Bird) parameterization

 elements involved in the cluster:
      1: Tb  valence charge: 19.0000  lmax=  3
             comment    : Parameterized Tb TM psp (4f5s5p5d6s6p projectors, 4/2/2022 by EJB)
             pseudpotential type            :   0
             highest angular component      :   3
             local potential used           :   0
             number of non-local projections:  25
             semicore corrections included  :  0.900 (radius)  8.981 (charge)
             cutoff =   1.618   1.828   3.813   1.403


 total charge:   0.000

 atomic composition:
     Tb  :    1

 number of electrons: spin up=    13 (  13 per task)  down=     6 (   6 per task) (Fourier space)
 number of orbitals : spin up=    13 (  13 per task)  down=     6 (   6 per task) (Fourier space)

 supercell:
      cell_name:  cell_default                                      
      lattice:    a1=<  26.000   0.000   0.000 >
                  a2=<   0.000  26.000   0.000 >
                  a3=<   0.000   0.000  26.000 >
      reciprocal: b1=<   0.242   0.000   0.000 >
                  b2=<   0.000   0.242   0.000 >
                  b3=<   0.000   0.000   0.242 >
      lattice:    a=      26.000 b=     26.000 c=      26.000
                  alpha=  90.000 beta=  90.000 gamma=  90.000
                  omega=     17576.0

      density cutoff= 40.000  fft= 80x 80x 80(   106048 waves    17674 per task)
      wavefnc cutoff= 20.000  fft= 80x 80x 80(    37447 waves     6241 per task)
      Ewald summation: cut radius=    8.28  and  1
                       Madelung Wigner-Seitz=    1.76011888 (alpha=    2.83729748 rs=16.12911276)

 technical parameters:
      time step=      1.00     fictitious mass=  400000.0
      tolerance=0.100E-06 (energy)   0.100E-06 (density)
      maximum iterations =      1000 (   10 inner    100 outer )





== Energy Calculation ==


          ============ Grassmann lmbfgs iteration ============
     >>>  ITERATION STARTED AT Tue Apr 25 13:52:32 2023  <<<
    iter.           Energy         DeltaE       DeltaRho 
    ------------------------------------------------------
     -  15 steepest descent iterations performed
      10   -0.1213562366E+03   -0.14909E+01    0.71198E+01
     -  10 steepest descent iterations performed
      20   -0.1241479000E+03   -0.44598E-01    0.65779E-01
     -  10 steepest descent iterations performed
      30   -0.1243774375E+03   -0.19832E-01    0.75240E-02
     -  10 steepest descent iterations performed
      40   -0.1244937229E+03   -0.38563E-02    0.37482E-02
      50   -0.1245179507E+03   -0.77252E-03    0.88370E-03
      60   -0.1245219793E+03   -0.33039E-03    0.86467E-03
      70   -0.1245244354E+03   -0.14629E-03    0.10538E-02
      80   -0.1245251379E+03   -0.26592E-04    0.17307E-03
      90   -0.1245252867E+03   -0.98169E-05    0.29618E-04
     100   -0.1245253497E+03   -0.28675E-05    0.15952E-04
     110   -0.1245253599E+03   -0.31711E-06    0.91074E-06
     120   -0.1245253617E+03   -0.16628E-06    0.33242E-06
     130   -0.1245253644E+03   -0.35348E-06    0.37648E-05
     -  10 steepest descent iterations performed
     140   -0.1245253658E+03   -0.88754E-07    0.43209E-07
  *** tolerance ok. iteration terminated
     >>>  ITERATION ENDED   AT Tue Apr 25 13:53:01 2023  <<<


==  Summary Of Results  ==

 number of electrons: spin up=   13.00000  down=    6.00000 (real space)

 total     energy    :  -0.1245253658E+03 (   -0.12453E+03/ion)
 total orbital energy:  -0.2449254262E+02 (   -0.12891E+01/electron)
 hartree   energy    :   0.7353042926E+02 (    0.38700E+01/electron)
 exc-corr  energy    :  -0.2195111662E+02 (   -0.11553E+01/electron)
 ion-ion   energy    :  -0.1969739212E+02 (   -0.19697E+02/ion)

 kinetic (planewave) :   0.2834513738E+02 (    0.14918E+01/electron)
 V_local (planewave) :  -0.1864689695E+03 (   -0.98142E+01/electron)
 V_nl    (planewave) :   0.1716545741E+01 (    0.90345E-01/electron)
 V_Coul  (planewave) :   0.1470608585E+03 (    0.77400E+01/electron)
 V_xc.   (planewave) :  -0.1514611478E+02 (   -0.79716E+00/electron)
 Virial Coefficient  :  -0.1864082692E+01

 orbital energies:
    -0.1724821E+00 (  -4.694eV)
    -0.1726088E+00 (  -4.697eV)
    -0.1727760E+00 (  -4.702eV)
    -0.5117846E+00 ( -13.926eV)
    -0.5370192E+00 ( -14.613eV)
    -0.5371217E+00 ( -14.616eV)
    -0.5680081E+00 ( -15.456eV)
    -0.5682299E+00 ( -15.462eV)    -0.4679150E+00 ( -12.733eV)
    -0.5683062E+00 ( -15.465eV)    -0.4680004E+00 ( -12.735eV)
    -0.2205852E+01 ( -60.025eV)    -0.2137069E+01 ( -58.153eV)
    -0.2206143E+01 ( -60.033eV)    -0.2137155E+01 ( -58.155eV)
    -0.2206513E+01 ( -60.043eV)    -0.2137319E+01 ( -58.160eV)
    -0.3387268E+01 ( -92.173eV)    -0.3330972E+01 ( -90.641eV)

 Total PSPW energy     :  -0.1245253658E+03


=== Spin Contamination ===

 <Sexact^2> =    15.750000000000000     
 <S^2>      =    15.751980812628780     



== Center of Charge ==

spin up     (    0.0000,    0.0000,   -0.0001 )
spin down   (    0.0000,   -0.0000,    0.0000 )
     total  (    0.0000,    0.0000,   -0.0000 )
ionic       (    0.0000,    0.0000,    0.0000 )


== Molecular Dipole wrt Center of Mass ==

mu   =  (   -0.0006,   -0.0003,    0.0007 ) au
|mu| =     0.0009 au,       0.0024 Debye

 output psi filename:./perm/pspw-pbe-Tb1.movecs

 Writing Crystallographic Information File:./perm/Tb1.cif
   - cell not shifted (nwpw:cif_shift_cell .false.)


== Timing ==

cputime in seconds
  prologue    :   0.294557E+01
  main loop   :   0.285263E+02
  epilogue    :   0.132026E+00
  total       :   0.316039E+02
  cputime/step:   0.781542E-01       (     365 evalulations,     139 linesearches)


Time spent doing                        total          step       percent
  total time                 :   0.316061E+02  0.865921E-01       100.0 %
  i/o time                   :   0.288569E+01  0.790601E-02         9.1 %
  FFTs                       :   0.531284E+01  0.145557E-01        16.8 %
  dot products               :   0.122438E+01  0.335447E-02         3.9 %
  geodesic                   :   0.194896E+01  0.533961E-02         6.2 %
  ffm_dgemm                  :   0.235022E+00  0.643897E-03         0.7 %
  fmf_dgemm                  :   0.111775E+01  0.306233E-02         3.5 %
  mmm_dgemm                  :   0.665140E-02  0.182230E-04         0.0 %
  m_diagonalize              :   0.466687E-02  0.127860E-04         0.0 %
  exchange correlation       :   0.120145E+02  0.329165E-01        38.0 %
  local pseudopotentials     :   0.117000E-03  0.320548E-06         0.0 %
  non-local pseudopotentials :   0.730861E+00  0.200236E-02         2.3 %
  hartree potentials         :   0.366530E-01  0.100419E-03         0.1 %
  ion-ion interaction        :   0.221300E-02  0.606301E-05         0.0 %
  structure factors          :   0.873465E-02  0.239306E-04         0.0 %
  phase factors              :   0.299900E-05  0.821644E-08         0.0 %
  masking and packing        :   0.146108E+01  0.400295E-02         4.6 %
  queue fft                  :   0.105681E+02  0.289536E-01        33.4 %
  queue fft (serial)         :   0.414637E+01  0.113599E-01        13.1 %
  queue fft (message passing):   0.616002E+01  0.168768E-01        19.5 %
  non-local psp FFM          :   0.377863E+00  0.103524E-02         1.2 %
  non-local psp FMF          :   0.276709E+00  0.758107E-03         0.9 %
  non-local psp FFM A        :   0.679137E-01  0.186065E-03         0.2 %
  non-local psp FFM B        :   0.279907E+00  0.766868E-03         0.9 %

     >>>  JOB COMPLETED     AT Tue Apr 25 13:53:01 2023  <<<
          ****************************************************
          *                                                  *
          *               NWPW PSPW Calculation              *
          *                                                  *
          * [ (Grassmann/Stiefel manifold implementation)  ] *
          *                                                  *
          *      [ NorthWest Chemistry implementation ]      *
          *                                                  *
          *            version #5.10   06/12/02              *
          *                                                  *
          *    This code was developed by Eric J. Bylaska,   *
          *    and was based upon algorithms and code        *
          *    developed by the group of Prof. John H. Weare *
          *                                                  *
          ****************************************************
     >>>  JOB STARTED       AT Tue Apr 25 13:53:01 2023  <<<
          ================ input data ========================
 pseudopotential is not correctly formatted:Tb.vpp                                            

 Generated formatted_filename: ./perm/Tb.vpp
 - filtering pseudopotential -
 Error reading psi - bad grid
 nfft :                   80                   80                   80
 ngrid:                  108                  108                  108
 Error reading psi - bad grid
 nfft :                   80                   80                   80
 ngrid:                  108                  108                  108
 Error reading psi - bad grid

 Grid is being converted:
 ------------------------

 To turn off automatic grid conversion:

 set nwpw:psi_nogrid .false.

 old_filename: pspw-pbe-Tb1.movecs                               
 new_filename: pspw-pbe-Tb1.movecs                               
 converting  :  80x 80x 80 --> 108x108x108
converting .... psi:    1 spin: 1
converting .... psi:    2 spin: 1
converting .... psi:    3 spin: 1
converting .... psi:    4 spin: 1
converting .... psi:    5 spin: 1
converting .... psi:    6 spin: 1
converting .... psi:    7 spin: 1
converting .... psi:    8 spin: 1
converting .... psi:    9 spin: 1
converting .... psi:   10 spin: 1
converting .... psi:   11 spin: 1
converting .... psi:   12 spin: 1
converting .... psi:   13 spin: 1
converting .... psi:    1 spin: 2
converting .... psi:    2 spin: 2
converting .... psi:    3 spin: 2
converting .... psi:    4 spin: 2
converting .... psi:    5 spin: 2
converting .... psi:    6 spin: 2

 input psi filename:./perm/pspw-pbe-Tb1.movecs

 number of processors used:         6
 processor grid           :   6 x   1
 parallel mapping         : 2d-hcurve
 parallel mapping         :  balanced
 number of threads        :         1
 parallel io              :       off

 options:
      boundary conditions  = periodic    (version3)
      electron spin        = unrestricted
      exchange-correlation = PBE96 (White and Bird) parameterization

 elements involved in the cluster:
      1: Tb  valence charge: 19.0000  lmax=  3
             comment    : Parameterized Tb TM psp (4f5s5p5d6s6p projectors, 4/2/2022 by EJB)
             pseudpotential type            :   0
             highest angular component      :   3
             local potential used           :   0
             number of non-local projections:  25
             semicore corrections included  :  0.900 (radius)  8.988 (charge)
             cutoff =   1.618   1.828   3.813   1.403


 total charge:   0.000

 atomic composition:
     Tb  :    1

 number of electrons: spin up=    13 (  13 per task)  down=     6 (   6 per task) (Fourier space)
 number of orbitals : spin up=    13 (  13 per task)  down=     6 (   6 per task) (Fourier space)

 supercell:
      cell_name:  cell_default                                      
      lattice:    a1=<  26.000   0.000   0.000 >
                  a2=<   0.000  26.000   0.000 >
                  a3=<   0.000   0.000  26.000 >
      reciprocal: b1=<   0.242   0.000   0.000 >
                  b2=<   0.000   0.242   0.000 >
                  b3=<   0.000   0.000   0.242 >
      lattice:    a=      26.000 b=     26.000 c=      26.000
                  alpha=  90.000 beta=  90.000 gamma=  90.000
                  omega=     17576.0

      density cutoff= 80.000  fft=108x108x108(   300163 waves    50028 per task)
      wavefnc cutoff= 40.000  fft=108x108x108(   106048 waves    17674 per task)
      Ewald summation: cut radius=    8.28  and  1
                       Madelung Wigner-Seitz=    1.76011888 (alpha=    2.83729748 rs=16.12911276)

 technical parameters:
      time step=      1.00     fictitious mass=  400000.0
      tolerance=0.100E-06 (energy)   0.100E-06 (density)
      maximum iterations =      1000 (   10 inner    100 outer )





== Energy Calculation ==


          ============ Grassmann lmbfgs iteration ============
     >>>  ITERATION STARTED AT Tue Apr 25 13:53:06 2023  <<<
    iter.           Energy         DeltaE       DeltaRho 
    ------------------------------------------------------
      10   -0.1245493668E+03   -0.11499E-01    0.99742E-02
     -  10 steepest descent iterations performed
      20   -0.1260974815E+03   -0.73610E-01    0.32923E+00
     -  10 steepest descent iterations performed
      30   -0.1262725613E+03   -0.16687E-02    0.20413E-01
      40   -0.1262785271E+03   -0.15582E-03    0.21946E-03
      50   -0.1262798459E+03   -0.22083E-03    0.18060E-02
     -  10 steepest descent iterations performed
      60   -0.1262840355E+03   -0.13749E-02    0.11856E-01
     -  10 steepest descent iterations performed
      70   -0.1262959016E+03   -0.13324E-02    0.88396E-02
      80   -0.1263455688E+03   -0.33936E-02    0.23244E+00
     -  10 steepest descent iterations performed
      90   -0.1263690297E+03   -0.10409E-02    0.31957E-02
     100   -0.1263948769E+03   -0.27285E-02    0.44804E-01
     -  10 steepest descent iterations performed
     110   -0.1264102801E+03   -0.89674E-03    0.22216E-02
     120   -0.1264178131E+03   -0.75769E-03    0.55558E-02
     130   -0.1264335641E+03   -0.14683E-02    0.43322E-01
     -  10 steepest descent iterations performed
     140   -0.1264511323E+03   -0.23841E-02    0.66756E-02
     -  10 steepest descent iterations performed
     150   -0.1264595219E+03   -0.65049E-03    0.61126E-03
     160   -0.1264737810E+03   -0.10383E-02    0.80368E-02
     -  10 steepest descent iterations performed
     170   -0.1264781087E+03   -0.17292E-03    0.49404E-03
     180   -0.1264808265E+03   -0.46817E-03    0.35904E-02
     -  10 steepest descent iterations performed
     190   -0.1264829333E+03   -0.12956E-03    0.26181E-03
     200   -0.1264862106E+03   -0.42423E-03    0.79136E-02
     -  10 steepest descent iterations performed
     210   -0.1264892022E+03   -0.17024E-03    0.49139E-03
     220   -0.1264911209E+03   -0.28385E-03    0.30418E-02
     -  10 steepest descent iterations performed
     230   -0.1264927431E+03   -0.10868E-03    0.22783E-03
     240   -0.1264944469E+03   -0.14151E-03    0.31868E-02
     -  10 steepest descent iterations performed
     250   -0.1264956553E+03   -0.73184E-04    0.21220E-03
     260   -0.1264963301E+03   -0.84917E-04    0.97387E-03
     -  10 steepest descent iterations performed
     270   -0.1264968450E+03   -0.37590E-04    0.94905E-04
     280   -0.1264974131E+03   -0.45442E-04    0.13875E-02
     -  10 steepest descent iterations performed
     290   -0.1264978359E+03   -0.27333E-04    0.88615E-04
     300   -0.1264980850E+03   -0.32056E-04    0.46609E-03
     -  10 steepest descent iterations performed
     310   -0.1264982898E+03   -0.16019E-04    0.47992E-04
     320   -0.1264985365E+03   -0.18954E-04    0.75973E-03
     -  10 steepest descent iterations performed
     330   -0.1264987276E+03   -0.11951E-04    0.38092E-04
     340   -0.1264988232E+03   -0.12081E-04    0.16359E-03
     -  10 steepest descent iterations performed
     350   -0.1264989039E+03   -0.71280E-05    0.22687E-04
     360   -0.1264990266E+03   -0.94697E-05    0.48155E-03
     -  10 steepest descent iterations performed
     370   -0.1264991289E+03   -0.62624E-05    0.19218E-04
     380   -0.1264991757E+03   -0.58534E-05    0.77492E-04
     390   -0.1264994210E+03   -0.14901E-04    0.46854E-02
     -  10 steepest descent iterations performed
     400   -0.1264994830E+03   -0.57952E-05    0.38137E-05
     410   -0.1264994907E+03   -0.62774E-06    0.40197E-05
     420   -0.1264995015E+03   -0.59828E-06    0.40997E-04
     430   -0.1264995221E+03   -0.77843E-06    0.23910E-03
