 argument  1 = Gd1.nw



============================== echo of input deck ==============================
title "swnc: e theory=pspw xc=pbe formula=H130O65gd1 charge=0 mult=3"
#machinejob:expert

permanent_dir ./perm
scratch_dir   ./perm

echo

start pspw-pbe-Gd1

memory 2300 mb

charge 0

geometry
Gd 0.0 0.0 0.0
end


nwpw
  simulation_cell
     SC 26.0
     #boundary_conditions aperiodic
  end

  ### pseudopotential block begin ###
  ### pseudopotential block end   ###
  2d-hcurve
  time_step 1.0
  cutoff 80.0
  lmbfgs

  mult 7
  xc pbe96

end
set nwpw:kbpp_ray    .true.
set nwpw:kbpp_filter .true.
#set nwpw:gram-schmidt .true.
set nwpw:cif_filename Gd1

#task pspw steepest_descent
task pspw energy ignore

================================================================================


                                         
                                         


             Northwest Computational Chemistry Package (NWChem) 7.2.0
             --------------------------------------------------------


                    Environmental Molecular Sciences Laboratory
                       Pacific Northwest National Laboratory
                                Richland, WA 99352

                              Copyright (c) 1994-2022
                       Pacific Northwest National Laboratory
                            Battelle Memorial Institute

             NWChem is an open-source computational chemistry package
                        distributed under the terms of the
                      Educational Community License (ECL) 2.0
             A copy of the license is included with this distribution
                              in the LICENSE.TXT file

                                  ACKNOWLEDGMENT
                                  --------------

            This software and its documentation were developed at the
            EMSL at Pacific Northwest National Laboratory, a multiprogram
            national laboratory, operated for the U.S. Department of Energy
            by Battelle under Contract Number DE-AC05-76RL01830. Support
            for this work was provided by the Department of Energy Office
            of Biological and Environmental Research, Office of Basic
            Energy Sciences, and the Office of Advanced Scientific Computing.


           Job information
           ---------------

    hostname        = Erics-MacBook-Pro.local
    program         = nwchem
    date            = Sun Apr 23 14:40:13 2023

    compiled        = Mon_Mar_27_19:09:42_2023
    source          = /Users/bylaska/nwchem-releases/nwchem
    nwchem branch   = 7.2.0
    nwchem revision = v7.2.0-beta1-380-gdf1eef5276
    ga revision     = 5.8.0
    use scalapack   = F
    input           = Gd1.nw
    prefix          = pspw-pbe-Gd1.
    data base       = ./perm/pspw-pbe-Gd1.db
    status          = startup
    nproc           =        6
    time left       =     -1s



           Memory information
           ------------------

    heap     =   75366396 doubles =    575.0 Mbytes
    stack    =   75366401 doubles =    575.0 Mbytes
    global   =  150732800 doubles =   1150.0 Mbytes (distinct from heap & stack)
    total    =  301465597 doubles =   2300.0 Mbytes
    verify   = yes
    hardfail = no 


           Directory information
           ---------------------

  0 permanent = ./perm
  0 scratch   = ./perm




                                NWChem Input Module
                                -------------------


           swnc: e theory=pspw xc=pbe formula=H130O65gd1 charge=0 mult=3
           -------------------------------------------------------------

 Scaling coordinates for geometry "geometry" by  1.889725989
 (inverse scale =  0.529177249)



                             Geometry "geometry" -> ""
                             -------------------------

 Output coordinates in angstroms (scale by  1.889725989 to convert to a.u.)

  No.       Tag          Charge          X              Y              Z
 ---- ---------------- ---------- -------------- -------------- --------------
    1 Gd                  64.0000     0.00000000     0.00000000     0.00000000

      Atomic Mass 
      ----------- 

      Gd               157.924100


 Effective nuclear repulsion energy (a.u.)       0.0000000000

            Nuclear Dipole moment (a.u.) 
            ----------------------------
        X                 Y               Z
 ---------------- ---------------- ----------------
     0.0000000000     0.0000000000     0.0000000000


            XYZ format geometry
            -------------------
     1
 geometry
 Gd                    0.00000000     0.00000000     0.00000000

          ****************************************************
          *                                                  *
          *               NWPW PSPW Calculation              *
          *                                                  *
          * [ (Grassmann/Stiefel manifold implementation)  ] *
          *                                                  *
          *      [ NorthWest Chemistry implementation ]      *
          *                                                  *
          *            version #5.10   06/12/02              *
          *                                                  *
          *    This code was developed by Eric J. Bylaska,   *
          *    and was based upon algorithms and code        *
          *    developed by the group of Prof. John H. Weare *
          *                                                  *
          ****************************************************
     >>>  JOB STARTED       AT Sun Apr 23 14:40:13 2023  <<<
          ================ input data ========================

 input psi filename:./perm/pspw-pbe-Gd1.movecs

 number of processors used:         6
 processor grid           :   6 x   1
 parallel mapping         : 2d-hcurve
 parallel mapping         :  balanced
 number of threads        :         1
 parallel io              :       off

 options:
      boundary conditions  = periodic    (version3)
      electron spin        = unrestricted
      exchange-correlation = PBE96 (White and Bird) parameterization

 elements involved in the cluster:
      1: Gd  valence charge: 18.0000  lmax=  3
             comment    : Parameterized Gd TM psp (4f5s5p5d6s6p projectors, 4/6/2022 by EJB)
             pseudpotential type            :   0
             highest angular component      :   3
             local potential used           :   0
             number of non-local projections:  25
             semicore corrections included  :  0.900 (radius)  9.640 (charge)
             cutoff =   1.618   1.828   1.813   1.403


 total charge:   0.000

 atomic composition:
     Gd  :    1

 number of electrons: spin up=    12 (  12 per task)  down=     6 (   6 per task) (Fourier space)
 number of orbitals : spin up=    12 (  12 per task)  down=     6 (   6 per task) (Fourier space)

 supercell:
      cell_name:  cell_default                                      
      lattice:    a1=<  26.000   0.000   0.000 >
                  a2=<   0.000  26.000   0.000 >
                  a3=<   0.000   0.000  26.000 >
      reciprocal: b1=<   0.242   0.000   0.000 >
                  b2=<   0.000   0.242   0.000 >
                  b3=<   0.000   0.000   0.242 >
      lattice:    a=      26.000 b=     26.000 c=      26.000
                  alpha=  90.000 beta=  90.000 gamma=  90.000
                  omega=     17576.0

      density cutoff=160.000  fft=150x150x150(   849355 waves   141560 per task)
      wavefnc cutoff= 80.000  fft=150x150x150(   300163 waves    50027 per task)
      Ewald summation: cut radius=    8.28  and  1
                       Madelung Wigner-Seitz=    1.76011888 (alpha=    2.83729748 rs=16.12911276)

 technical parameters:
      time step=      1.00     fictitious mass=  400000.0
      tolerance=0.100E-06 (energy)   0.100E-06 (density)
      maximum iterations =      1000 (   10 inner    100 outer )





== Energy Calculation ==


          ============ Grassmann lmbfgs iteration ============
     >>>  ITERATION STARTED AT Sun Apr 23 14:40:14 2023  <<<
    iter.           Energy         DeltaE       DeltaRho 
    ------------------------------------------------------
      10   -0.1196802788E+03   -0.49426E-07    0.20516E-10
  *** tolerance ok. iteration terminated
     >>>  ITERATION ENDED   AT Sun Apr 23 14:40:18 2023  <<<


==  Summary Of Results  ==

 number of electrons: spin up=   12.00000  down=    6.00000 (real space)

 total     energy    :  -0.1196802788E+03 (   -0.11968E+03/ion)
 total orbital energy:  -0.1166137790E+02 (   -0.64785E+00/electron)
 hartree   energy    :   0.8273923897E+02 (    0.45966E+01/electron)
 exc-corr  energy    :  -0.2586127060E+02 (   -0.14367E+01/electron)
 ion-ion   energy    :  -0.1767854583E+02 (   -0.17679E+02/ion)

 kinetic (planewave) :   0.1109131086E+03 (    0.61618E+01/electron)
 V_local (planewave) :  -0.1782276365E+03 (   -0.99015E+01/electron)
 V_nl    (planewave) :  -0.9156517346E+02 (   -0.50870E+01/electron)
 V_Coul  (planewave) :   0.1654784779E+03 (    0.91932E+01/electron)
 V_xc.   (planewave) :  -0.1826015449E+02 (   -0.10145E+01/electron)
 Virial Coefficient  :  -0.1105139762E+01

 orbital energies:
    -0.1471092E+00 (  -4.003eV)
    -0.2749964E+00 (  -7.483eV)
    -0.2999939E+00 (  -8.163eV)
    -0.3008192E+00 (  -8.186eV)
    -0.3020293E+00 (  -8.219eV)
    -0.3068162E+00 (  -8.349eV)
    -0.3071110E+00 (  -8.357eV)    -0.7899167E-01 (  -2.149eV)
    -0.3088329E+00 (  -8.404eV)    -0.1491741E+00 (  -4.059eV)
    -0.9839874E+00 ( -26.776eV)    -0.9046625E+00 ( -24.617eV)
    -0.9845196E+00 ( -26.790eV)    -0.9050732E+00 ( -24.628eV)
    -0.9918166E+00 ( -26.989eV)    -0.9067038E+00 ( -24.673eV)
    -0.1813266E+01 ( -49.342eV)    -0.1695475E+01 ( -46.137eV)

 Total PSPW energy     :  -0.1196802788E+03


=== Spin Contamination ===

 <Sexact^2> =    12.000000000000000     
 <S^2>      =    12.647092738150899     



== Center of Charge ==

spin up     (    0.0228,   -0.0079,    0.0000 )
spin down   (   -0.0467,    0.0178,    0.0000 )
     total  (   -0.0004,    0.0007,    0.0000 )
ionic       (    0.0000,    0.0000,    0.0000 )


== Molecular Dipole wrt Center of Mass ==

mu   =  (    0.0070,   -0.0124,   -0.0003 ) au
|mu| =     0.0143 au,       0.0362 Debye

 output psi filename:./perm/pspw-pbe-Gd1.movecs

 Writing Crystallographic Information File:./perm/Gd1.cif
   - cell not shifted (nwpw:cif_shift_cell .false.)


== Timing ==

cputime in seconds
  prologue    :   0.129810E+01
  main loop   :   0.349907E+01
  epilogue    :   0.666309E+00
  total       :   0.546348E+01
  cputime/step:   0.583179E+00       (       6 evalulations,       1 linesearches)


Time spent doing                        total          step       percent
  total time                 :   0.546583E+01  0.910972E+00       100.0 %
  i/o time                   :   0.167236E+01  0.278726E+00        30.6 %
  FFTs                       :   0.774999E+00  0.129166E+00        14.2 %
  dot products               :   0.745948E-01  0.124325E-01         1.4 %
  geodesic                   :   0.860890E-01  0.143482E-01         1.6 %
  ffm_dgemm                  :   0.102970E-01  0.171617E-02         0.2 %
  fmf_dgemm                  :   0.790090E-01  0.131682E-01         1.4 %
  mmm_dgemm                  :   0.560000E-04  0.933333E-05         0.0 %
  m_diagonalize              :   0.119998E-03  0.199997E-04         0.0 %
  exchange correlation       :   0.150639E+01  0.251065E+00        27.6 %
  local pseudopotentials     :   0.106300E-02  0.177167E-03         0.0 %
  non-local pseudopotentials :   0.994420E-01  0.165737E-01         1.8 %
  hartree potentials         :   0.507200E-02  0.845333E-03         0.1 %
  ion-ion interaction        :   0.144900E-02  0.241500E-03         0.0 %
  structure factors          :   0.169499E-02  0.282499E-03         0.0 %
  phase factors              :   0.399900E-05  0.666500E-06         0.0 %
  masking and packing        :   0.204583E+00  0.340972E-01         3.7 %
  queue fft                  :   0.133491E+01  0.222484E+00        24.4 %
  queue fft (serial)         :   0.506975E+00  0.844959E-01         9.3 %
  queue fft (message passing):   0.784995E+00  0.130833E+00        14.4 %
  non-local psp FFM          :   0.505980E-01  0.843300E-02         0.9 %
  non-local psp FMF          :   0.385280E-01  0.642133E-02         0.7 %
  non-local psp FFM A        :   0.109300E-01  0.182167E-02         0.2 %
  non-local psp FFM B        :   0.387220E-01  0.645367E-02         0.7 %

     >>>  JOB COMPLETED     AT Sun Apr 23 14:40:18 2023  <<<

 Task  times  cpu:        5.5s     wall:        5.5s


                                NWChem Input Module
                                -------------------


 Summary of allocated global arrays
-----------------------------------
  No active global arrays


MA_summarize_allocated_blocks: starting scan ...
MA_summarize_allocated_blocks: scan completed: 0 heap blocks, 0 stack blocks
MA usage statistics:

	allocation statistics:
					      heap	     stack
					      ----	     -----
	current number of blocks	         0	         0
	maximum number of blocks	       277	        21
	current total bytes		         0	         0
	maximum total bytes		 521700632	 129140712
	maximum total K-bytes		    521701	    129141
	maximum total M-bytes		       522	       130


                                     CITATION
                                     --------
                Please cite the following reference when publishing
                           results obtained with NWChem:

          E. Apra, E. J. Bylaska, W. A. de Jong, N. Govind, K. Kowalski,
       T. P. Straatsma, M. Valiev, H. J. J. van Dam, Y. Alexeev, J. Anchell,
       V. Anisimov, F. W. Aquino, R. Atta-Fynn, J. Autschbach, N. P. Bauman,
     J. C. Becca, D. E. Bernholdt, K. Bhaskaran-Nair, S. Bogatko, P. Borowski,
         J. Boschen, J. Brabec, A. Bruner, E. Cauet, Y. Chen, G. N. Chuev,
      C. J. Cramer, J. Daily, M. J. O. Deegan, T. H. Dunning Jr., M. Dupuis,
   K. G. Dyall, G. I. Fann, S. A. Fischer, A. Fonari, H. Fruchtl, L. Gagliardi,
      J. Garza, N. Gawande, S. Ghosh, K. Glaesemann, A. W. Gotz, J. Hammond,
       V. Helms, E. D. Hermes, K. Hirao, S. Hirata, M. Jacquelin, L. Jensen,
   B. G. Johnson, H. Jonsson, R. A. Kendall, M. Klemm, R. Kobayashi, V. Konkov,
      S. Krishnamoorthy, M. Krishnan, Z. Lin, R. D. Lins, R. J. Littlefield,
      A. J. Logsdail, K. Lopata, W. Ma, A. V. Marenich, J. Martin del Campo,
   D. Mejia-Rodriguez, J. E. Moore, J. M. Mullin, T. Nakajima, D. R. Nascimento,
    J. A. Nichols, P. J. Nichols, J. Nieplocha, A. Otero-de-la-Roza, B. Palmer,
    A. Panyala, T. Pirojsirikul, B. Peng, R. Peverati, J. Pittner, L. Pollack,
   R. M. Richard, P. Sadayappan, G. C. Schatz, W. A. Shelton, D. W. Silverstein,
   D. M. A. Smith, T. A. Soares, D. Song, M. Swart, H. L. Taylor, G. S. Thomas,
            V. Tipparaju, D. G. Truhlar, K. Tsemekhman, T. Van Voorhis,
      A. Vazquez-Mayagoitia, P. Verma, O. Villa, A. Vishnu, K. D. Vogiatzis,
        D. Wang, J. H. Weare, M. J. Williamson, T. L. Windus, K. Wolinski,
        A. T. Wong, Q. Wu, C. Yang, Q. Yu, M. Zacharias, Z. Zhang, Y. Zhao,
                                and R. J. Harrison
                        "NWChem: Past, present, and future
                         J. Chem. Phys. 152, 184102 (2020)
                               doi:10.1063/5.0004997

                                      AUTHORS
                                      -------
  E. Apra, E. J. Bylaska, N. Govind, K. Kowalski, M. Valiev, D. Mejia-Rodriguez,
       A. Kunitsa, N. P. Bauman, A. Panyala, W. A. de Jong, T. P. Straatsma,
   H. J. J. van Dam, D. Wang, T. L. Windus, J. Hammond, J. Autschbach, A. Woods,
    K. Bhaskaran-Nair, J. Brabec, K. Lopata, S. A. Fischer, S. Krishnamoorthy,
     M. Jacquelin, W. Ma, M. Klemm, O. Villa, Y. Chen, V. Anisimov, F. Aquino,
     S. Hirata, M. T. Hackler, E. Hermes, L. Jensen, J. E. Moore, J. C. Becca,
      V. Konjkov, T. Risthaus, M. Malagoli, A. Marenich, A. Otero-de-la-Roza,
        J. Mullin, P. Nichols, R. Peverati, J. Pittner, Y. Zhao, P.-D. Fan,
        A. Fonari, M. J. Williamson, R. J. Harrison, J. R. Rehr, M. Dupuis,
     D. Silverstein, D. M. A. Smith, J. Nieplocha, V. Tipparaju, M. Krishnan,
     B. E. Van Kuiken, A. Vazquez-Mayagoitia, M. Swart, Q. Wu, T. Van Voorhis,
     A. A. Auer, M. Nooijen, L. D. Crosby, E. Brown, G. Cisneros, G. I. Fann,
   H. Fruchtl, J. Garza, K. Hirao, R. A. Kendall, J. A. Nichols, K. Tsemekhman,
    K. Wolinski, J. Anchell, D. E. Bernholdt, P. Borowski, T. Clark, D. Clerc,
   H. Dachsel, M. J. O. Deegan, K. Dyall, D. Elwood, E. Glendening, M. Gutowski,
   A. C. Hess, J. Jaffe, B. G. Johnson, J. Ju, R. Kobayashi, R. Kutteh, Z. Lin,
   R. Littlefield, X. Long, B. Meng, T. Nakajima, S. Niu, L. Pollack, M. Rosing,
   K. Glaesemann, G. Sandrone, M. Stave, H. Taylor, G. Thomas, J. H. van Lenthe,
                               A. T. Wong, Z. Zhang.

 Total times  cpu:        5.5s     wall:        5.5s
