 argument  1 = Pm1.nw



============================== echo of input deck ==============================
title "swnc: e theory=pspw xc=pbe formula=H130O65pm1 charge=0 mult=3"
#machinejob:expert

permanent_dir ./perm
scratch_dir   ./perm

echo

start pspw-pbe-Pm1

memory 2300 mb

charge 0

geometry
Pm 0.0 0.0 0.0
end


nwpw
  simulation_cell
     SC 26.0
     #boundary_conditions aperiodic
  end

  ### pseudopotential block begin ###
  pseudopotentials
    Pm library paw_default
  end
  ### pseudopotential block end   ###
  2d-hcurve
  time_step 1.0
  cutoff 60.0
  lmbfgs

  mult 2
  xc pbe96

end
set nwpw:kbpp_ray    .true.
set nwpw:kbpp_filter .true.
#set nwpw:gram-schmidt .true.
set nwpw:cif_filename Pm1

#task pspw steepest_descent
task pspw energy ignore
================================================================================


                                         
                                         


             Northwest Computational Chemistry Package (NWChem) 7.2.0
             --------------------------------------------------------


                    Environmental Molecular Sciences Laboratory
                       Pacific Northwest National Laboratory
                                Richland, WA 99352

                              Copyright (c) 1994-2022
                       Pacific Northwest National Laboratory
                            Battelle Memorial Institute

             NWChem is an open-source computational chemistry package
                        distributed under the terms of the
                      Educational Community License (ECL) 2.0
             A copy of the license is included with this distribution
                              in the LICENSE.TXT file

                                  ACKNOWLEDGMENT
                                  --------------

            This software and its documentation were developed at the
            EMSL at Pacific Northwest National Laboratory, a multiprogram
            national laboratory, operated for the U.S. Department of Energy
            by Battelle under Contract Number DE-AC05-76RL01830. Support
            for this work was provided by the Department of Energy Office
            of Biological and Environmental Research, Office of Basic
            Energy Sciences, and the Office of Advanced Scientific Computing.


           Job information
           ---------------

    hostname        = Erics-MacBook-Pro.local
    program         = nwchem
    date            = Thu Apr 13 05:57:47 2023

    compiled        = Mon_Mar_27_19:09:42_2023
    source          = /Users/bylaska/nwchem-releases/nwchem
    nwchem branch   = 7.2.0
    nwchem revision = v7.2.0-beta1-380-gdf1eef5276
    ga revision     = 5.8.0
    use scalapack   = F
    input           = Pm1.nw
    prefix          = pspw-pbe-Pm1.
    data base       = ./perm/pspw-pbe-Pm1.db
    status          = startup
    nproc           =        6
    time left       =     -1s



           Memory information
           ------------------

    heap     =   75366396 doubles =    575.0 Mbytes
    stack    =   75366401 doubles =    575.0 Mbytes
    global   =  150732800 doubles =   1150.0 Mbytes (distinct from heap & stack)
    total    =  301465597 doubles =   2300.0 Mbytes
    verify   = yes
    hardfail = no 


           Directory information
           ---------------------

  0 permanent = ./perm
  0 scratch   = ./perm




                                NWChem Input Module
                                -------------------


           swnc: e theory=pspw xc=pbe formula=H130O65pm1 charge=0 mult=3
           -------------------------------------------------------------

 Scaling coordinates for geometry "geometry" by  1.889725989
 (inverse scale =  0.529177249)



                             Geometry "geometry" -> ""
                             -------------------------

 Output coordinates in angstroms (scale by  1.889725989 to convert to a.u.)

  No.       Tag          Charge          X              Y              Z
 ---- ---------------- ---------- -------------- -------------- --------------
    1 Pm                  61.0000     0.00000000     0.00000000     0.00000000

      Atomic Mass 
      ----------- 

      Pm               144.912800


 Effective nuclear repulsion energy (a.u.)       0.0000000000

            Nuclear Dipole moment (a.u.) 
            ----------------------------
        X                 Y               Z
 ---------------- ---------------- ----------------
     0.0000000000     0.0000000000     0.0000000000


            XYZ format geometry
            -------------------
     1
 geometry
 Pm                    0.00000000     0.00000000     0.00000000

          ****************************************************
          *                                                  *
          *               NWPW PSPW Calculation              *
          *                                                  *
          * [ (Grassmann/Stiefel manifold implementation)  ] *
          *                                                  *
          *      [ NorthWest Chemistry implementation ]      *
          *                                                  *
          *            version #5.10   06/12/02              *
          *                                                  *
          *    This code was developed by Eric J. Bylaska,   *
          *    and was based upon algorithms and code        *
          *    developed by the group of Prof. John H. Weare *
          *                                                  *
          ****************************************************
     >>>  JOB STARTED       AT Thu Apr 13 05:57:47 2023  <<<
          ================ input data ========================
  library name resolved from: compiled reference
  NWCHEM_NWPW_LIBRARY set to: </Users/bylaska/nwchem-releases/nwchem/src/nwpw/libraryps/>
 Generating 1d pseudopotential for Pm  

 Generated formatted_filename: ./perm/Pm.vpp
 - filtering pseudopotential -
 random planewave guess, initial psi:pspw-pbe-Pm1.movecs                               
 -   spin, nalpha, nbeta:                    2                    8                    7

 input psi filename:./perm/pspw-pbe-Pm1.movecs

 Warning - K.S. orbitals are not orthonormal. Applying Gram-Schmidt orthonormalization.
         - exact norm=0.150000E+02 norm=0.967418E+01 corrected norm=0.150000E+02 (error=0.532582E+01)


 number of processors used:         6
 processor grid           :   6 x   1
 parallel mapping         : 2d-hcurve
 parallel mapping         :  balanced
 number of threads        :         1
 parallel io              :       off

 options:
      boundary conditions  = periodic    (version3)
      electron spin        = unrestricted
      exchange-correlation = PBE96 (White and Bird) parameterization

 elements involved in the cluster:
      1: Pm  valence charge:15.0  core charge:46.0
             comment    : Parameterized Pm paw (4f5s5p5d5f6s6p projectors, 4/2/2022 by EJB)
             pseudpotential type            :   4
             loggrid parameter r0        : 0.200E-02
             loggrid parameter rmax      : 0.250E+02
             loggrid parameter npoints   :      3000
             augmentation sphere radius  :     2.392 ( 2254 npoints 2254 per task)
             compensation sigma          :     0.346
             total number of projectors  :        27
             n_ps (n) l          eig      #projector
                4 (4) f    -0.100862               7
                1 (5) s    -1.480381               1
                2 (5) p    -0.846855               3
                3 (5) d    -0.077151               5
                5 (5) f     1.000000               7
                2 (6) s    -0.132185               1
                3 (6) p    -0.049263               3


 total charge:   0.000

 atomic composition:
     Pm  :    1

 number of electrons: spin up=     8 (   8 per task)  down=     7 (   7 per task) (Fourier space)
 number of orbitals : spin up=     8 (   8 per task)  down=     7 (   7 per task) (Fourier space)

 supercell:
      cell_name:  cell_default                                      
      lattice:    a1=<  26.000   0.000   0.000 >
                  a2=<   0.000  26.000   0.000 >
                  a3=<   0.000   0.000  26.000 >
      reciprocal: b1=<   0.242   0.000   0.000 >
                  b2=<   0.000   0.242   0.000 >
                  b3=<   0.000   0.000   0.242 >
      lattice:    a=      26.000 b=     26.000 c=      26.000
                  alpha=  90.000 beta=  90.000 gamma=  90.000
                  omega=     17576.0

      density cutoff= 30.000  fft= 70x 70x 70(    69013 waves    11502 per task)
      wavefnc cutoff= 15.000  fft= 70x 70x 70(    24347 waves     4057 per task)
      paw integration: xc lmax=  0 compensation charge= two-electron Gaussian
      Ewald summation: cut radius=    8.28  and  1
                       Madelung Wigner-Seitz=    1.76011888 (alpha=    2.83729748 rs=16.12911276)

 technical parameters:
      time step=      1.00     fictitious mass=  400000.0
      tolerance=0.100E-06 (energy)   0.100E-06 (density)
      maximum iterations =      1000 (   10 inner    100 outer )





== Energy Calculation ==


          ============ Grassmann lmbfgs iteration ============
     >>>  ITERATION STARTED AT Thu Apr 13 05:58:00 2023  <<<
    iter.           Energy         DeltaE       DeltaRho 
    ------------------------------------------------------
     -  15 steepest descent iterations performed
      10   -0.2785489513E+03   -0.11571E+01    0.30031E+01
     -  10 steepest descent iterations performed
      20   -0.2811397620E+03   -0.14704E-01    0.59841E-01
     -  10 steepest descent iterations performed
      30   -0.2813133601E+03   -0.14527E-01    0.20411E-01
     -  10 steepest descent iterations performed
      40   -0.2813917740E+03   -0.57841E-02    0.66834E-02
      50   -0.2814416792E+03   -0.33433E-02    0.22434E-01
      60   -0.2814561822E+03   -0.79567E-03    0.40339E-02
      70   -0.2814619189E+03   -0.33980E-03    0.26808E-02
      80   -0.2814645888E+03   -0.21149E-03    0.16034E-02
      90   -0.2814666174E+03   -0.17870E-03    0.21103E-02
     100   -0.2814679582E+03   -0.10710E-03    0.18018E-02
     110   -0.2814689517E+03   -0.88960E-04    0.13453E-02
     120   -0.2814696061E+03   -0.50682E-04    0.72055E-03
     130   -0.2814700188E+03   -0.33723E-04    0.43241E-03
     140   -0.2814703825E+03   -0.31321E-04    0.56249E-03
     150   -0.2814706146E+03   -0.23649E-04    0.52166E-03
     160   -0.2814708895E+03   -0.64650E-04    0.10783E-02
     -  10 steepest descent iterations performed
     170   -0.2814712645E+03   -0.20209E-04    0.59836E-04
     180   -0.2814714434E+03   -0.12145E-04    0.27734E-03
     190   -0.2814715429E+03   -0.11490E-04    0.23828E-03
     200   -0.2814716331E+03   -0.10970E-04    0.32160E-03
     210   -0.2814717539E+03   -0.87179E-05    0.50690E-03
     220   -0.2814718102E+03   -0.44577E-05    0.24552E-03
     230   -0.2814718488E+03   -0.38886E-05    0.14794E-03
     240   -0.2814718865E+03   -0.79133E-05    0.13788E-03
     -  10 steepest descent iterations performed
     250   -0.2814720254E+03   -0.76718E-05    0.15312E-03
     260   -0.2814720774E+03   -0.58023E-05    0.13038E-03
     270   -0.2814721149E+03   -0.36100E-05    0.10611E-03
     280   -0.2814721428E+03   -0.12030E-05    0.63099E-04
     290   -0.2814721625E+03   -0.28481E-05    0.31566E-04
     -  10 steepest descent iterations performed
     300   -0.2814721679E+03   -0.22298E-07    0.10579E-08
  *** tolerance ok. iteration terminated
     >>>  ITERATION ENDED   AT Thu Apr 13 05:59:38 2023  <<<


==  Summary Of Results  ==

 number of electrons: spin up=    8.00000  down=    7.00000 (real space)
     plane-wave part:             7.05682           6.46457 (real space)
      augmented part:             0.94318           0.53543 (real space)

 total     energy    :  -0.2814721679E+03 (   -0.28147E+03/ion)

 total paw energy    :  -0.9998507062E+04 (   -0.99985E+04/ion)
 total orbital energy:  -0.9802870063E+01 (   -0.65352E+00/electron)
 hartree   energy    :   0.3439764181E+02 (    0.22932E+01/electron)
 exc-corr  energy    :  -0.6436153263E+01 (   -0.42908E+00/electron)
 ion-ion   energy    :  -0.1227676794E+02 (   -0.12277E+02/ion)

 kinetic (planewave) :   0.2244323466E+02 (    0.14962E+01/electron)
 V_local (planewave) :  -0.1015947756E+03 (   -0.67730E+01/electron)
 V_nl    (planewave) :  -0.1988272756E+01 (   -0.13255E+00/electron)
 V_Coul  (planewave) :   0.6879528361E+02 (    0.45864E+01/electron)
 V_xc.   (planewave) :  -0.8339491633E+01 (   -0.55597E+00/electron)
 Virial Coefficient  :  -0.1921615002E+01

 kinetic (loc. basis):   0.1033344816E+03 (    0.68890E+01/electron)
 kinetic       (core):   0.1002084837E+05 (    0.10021E+05/ion)
 valence-core        :  -0.4737207407E+02 (   -0.31581E+01/electron)
 ncmp*V_local        :  -0.4868547219E+02 (   -0.32457E+01/electron)
 V_lpaw  (loc. basis):  -0.1846842289E+02 (   -0.12312E+01/electron)
 coulomb (loc. basis):  -0.4304051813E+00 (   -0.28694E-01/electron)
 coulomb  (ncmp-ncmp):   0.2407241492E+01 (    0.16048E+00/electron)
 coulomb    (ncmp-pw):   0.1088115170E+02 (    0.72541E+00/electron)
 exc-cor (loc. basis):  -0.2196718479E+03 (   -0.14645E+02/electron)
 pxc-cor (loc. basis):  -0.5631609487E+01 (   -0.56316E+01/electron)
 ion-core            :  -0.1973788326E+05 (   -0.19738E+05/ion)

 orbital energies:
    -0.1125412E+00 (  -3.062eV)
    -0.1137663E+00 (  -3.096eV)    -0.9880386E-01 (  -2.689eV)
    -0.1174876E+00 (  -3.197eV)    -0.1022001E+00 (  -2.781eV)
    -0.1624006E+00 (  -4.419eV)    -0.1556069E+00 (  -4.234eV)
    -0.8478270E+00 ( -23.071eV)    -0.8362815E+00 ( -22.757eV)
    -0.8587953E+00 ( -23.369eV)    -0.8400025E+00 ( -22.858eV)
    -0.8624577E+00 ( -23.469eV)    -0.8459691E+00 ( -23.020eV)
    -0.1934853E+01 ( -52.650eV)    -0.1913877E+01 ( -52.080eV)

 Total PSPW energy     :  -0.2814721679E+03


=== Spin Contamination ===

 <Sexact^2> =   0.75000000000000000     
 <S^2>      =    2.5270490462975452     



== Center of Charge ==

spin up     (   -0.1064,    0.0523,    0.0079 )
spin down   (    0.1187,   -0.0590,   -0.0082 )
     total  (    0.0012,   -0.0009,    0.0002 )
ionic       (    0.0000,    0.0000,    0.0000 )


== Molecular Dipole wrt Center of Mass ==

mu   =  (   -0.0181,    0.0136,   -0.0027 ) au
|mu| =     0.0228 au,       0.0580 Debye

 output psi filename:./perm/pspw-pbe-Pm1.movecs

 Writing Crystallographic Information File:./perm/Pm1.cif
   - cell not shifted (nwpw:cif_shift_cell .false.)


== Timing ==

cputime in seconds
  prologue    :   0.129072E+02
  main loop   :   0.988431E+02
  epilogue    :   0.771360E-01
  total       :   0.111827E+03
  cputime/step:   0.808864E-01       (    1222 evalulations,     293 linesearches)


Time spent doing                        total          step       percent
  total time                 :   0.111830E+03  0.915137E-01       100.0 %
  i/o time                   :   0.122892E+02  0.100566E-01        11.0 %
  FFTs                       :   0.174764E+02  0.143015E-01        15.6 %
  dot products               :   0.127475E+02  0.104317E-01        11.4 %
  geodesic                   :   0.660036E+01  0.540128E-02         5.9 %
  ffm_dgemm                  :   0.275457E+00  0.225415E-03         0.2 %
  fmf_dgemm                  :   0.165189E+01  0.135179E-02         1.5 %
  mmm_dgemm                  :   0.120015E+00  0.982117E-04         0.1 %
  m_diagonalize              :   0.126666E-01  0.103655E-04         0.0 %
    - m_tredq                :   0.314639E+00  0.257479E-03         0.3 %
  exchange correlation       :   0.320562E+02  0.262326E-01        28.7 %
  local pseudopotentials     :   0.196900E-02  0.161129E-05         0.0 %
  non-local pseudopotentials :   0.204504E+02  0.167352E-01        18.3 %
  hartree potentials         :   0.128184E+00  0.104897E-03         0.1 %
  ion-ion interaction        :   0.450573E+01  0.368717E-02         4.0 %
  structure factors          :   0.930576E+00  0.761519E-03         0.8 %
  phase factors              :   0.200000E-05  0.163666E-08         0.0 %
  masking and packing        :   0.323513E+01  0.264741E-02         2.9 %
  queue fft                  :   0.248431E+02  0.203298E-01        22.2 %
  queue fft (serial)         :   0.134040E+02  0.109689E-01        12.0 %
  queue fft (message passing):   0.110773E+02  0.906492E-02         9.9 %
  paw gaussian integrals     :   0.569726E+00  0.466224E-03         0.5 %
  paw atomic coulomb         :   0.143663E+01  0.117564E-02         1.3 %
  paw atomic xc              :   0.997200E+01  0.816039E-02         8.9 %
  paw gen dEmult/dQlm        :   0.169031E-01  0.138324E-04         0.0 %
  paw gen dElocal/dQlm       :   0.558300E-02  0.456874E-05         0.0 %
  paw cmp operations         :   0.558300E-02  0.456874E-05         0.0 %
  nwpw_ugauss                :   0.200000E-05  0.163666E-08         0.0 %
  nwpw_wgauss                :   0.569341E+00  0.465909E-03         0.5 %
  nwpw_gaunt                 :   0.363661E+01  0.297595E-02         3.3 %
  non-local psp FFM          :   0.727732E+00  0.595525E-03         0.7 %
  non-local psp FMF          :   0.535376E+00  0.438115E-03         0.5 %
  non-local psp FFM A        :   0.158176E+00  0.129440E-03         0.1 %
  non-local psp FFM B        :   0.494076E+00  0.404318E-03         0.4 %

     >>>  JOB COMPLETED     AT Thu Apr 13 05:59:38 2023  <<<
          ****************************************************
          *                                                  *
          *               NWPW PSPW Calculation              *
          *                                                  *
          * [ (Grassmann/Stiefel manifold implementation)  ] *
          *                                                  *
          *      [ NorthWest Chemistry implementation ]      *
          *                                                  *
          *            version #5.10   06/12/02              *
          *                                                  *
          *    This code was developed by Eric J. Bylaska,   *
          *    and was based upon algorithms and code        *
          *    developed by the group of Prof. John H. Weare *
          *                                                  *
          ****************************************************
     >>>  JOB STARTED       AT Thu Apr 13 05:59:38 2023  <<<
          ================ input data ========================
 pseudopotential is not correctly formatted:Pm.vpp                                            

 Generated formatted_filename: ./perm/Pm.vpp
 - filtering pseudopotential -
 Error reading psi - bad grid
 nfft :                   70                   70                   70
 ngrid:                   96                   96                   96
 Error reading psi - bad grid
 nfft :                   70                   70                   70
 ngrid:                   96                   96                   96
 Error reading psi - bad grid

 Grid is being converted:
 ------------------------

 To turn off automatic grid conversion:

 set nwpw:psi_nogrid .false.

 old_filename: pspw-pbe-Pm1.movecs                               
 new_filename: pspw-pbe-Pm1.movecs                               
 converting  :  70x 70x 70 -->  96x 96x 96
converting .... psi:    1 spin: 1
converting .... psi:    2 spin: 1
converting .... psi:    3 spin: 1
converting .... psi:    4 spin: 1
converting .... psi:    5 spin: 1
converting .... psi:    6 spin: 1
converting .... psi:    7 spin: 1
converting .... psi:    8 spin: 1
converting .... psi:    1 spin: 2
converting .... psi:    2 spin: 2
converting .... psi:    3 spin: 2
converting .... psi:    4 spin: 2
converting .... psi:    5 spin: 2
converting .... psi:    6 spin: 2
converting .... psi:    7 spin: 2

 input psi filename:./perm/pspw-pbe-Pm1.movecs

 Warning - K.S. orbitals are not orthonormal. Applying Gram-Schmidt orthonormalization.
         - exact norm=0.150000E+02 norm=0.150000E+02 corrected norm=0.150000E+02 (error=0.301439E-04)


 number of processors used:         6
 processor grid           :   6 x   1
 parallel mapping         : 2d-hcurve
 parallel mapping         :  balanced
 number of threads        :         1
 parallel io              :       off

 options:
      boundary conditions  = periodic    (version3)
      electron spin        = unrestricted
      exchange-correlation = PBE96 (White and Bird) parameterization

 elements involved in the cluster:
      1: Pm  valence charge:15.0  core charge:46.0
             comment    : Parameterized Pm paw (4f5s5p5d5f6s6p projectors, 4/2/2022 by EJB)
             pseudpotential type            :   4
             loggrid parameter r0        : 0.200E-02
             loggrid parameter rmax      : 0.250E+02
             loggrid parameter npoints   :      3000
             augmentation sphere radius  :     2.392 ( 2254 npoints 2254 per task)
             compensation sigma          :     0.346
             total number of projectors  :        27
             n_ps (n) l          eig      #projector
                4 (4) f    -0.100862               7
                1 (5) s    -1.480381               1
                2 (5) p    -0.846855               3
                3 (5) d    -0.077151               5
                5 (5) f     1.000000               7
                2 (6) s    -0.132185               1
                3 (6) p    -0.049263               3


 total charge:   0.000

 atomic composition:
     Pm  :    1

 number of electrons: spin up=     8 (   8 per task)  down=     7 (   7 per task) (Fourier space)
 number of orbitals : spin up=     8 (   8 per task)  down=     7 (   7 per task) (Fourier space)

 supercell:
      cell_name:  cell_default                                      
      lattice:    a1=<  26.000   0.000   0.000 >
                  a2=<   0.000  26.000   0.000 >
                  a3=<   0.000   0.000  26.000 >
      reciprocal: b1=<   0.242   0.000   0.000 >
                  b2=<   0.000   0.242   0.000 >
                  b3=<   0.000   0.000   0.242 >
      lattice:    a=      26.000 b=     26.000 c=      26.000
                  alpha=  90.000 beta=  90.000 gamma=  90.000
                  omega=     17576.0

      density cutoff= 60.000  fft= 96x 96x 96(   195216 waves    32536 per task)
      wavefnc cutoff= 30.000  fft= 96x 96x 96(    69013 waves    11502 per task)
      paw integration: xc lmax=  0 compensation charge= two-electron Gaussian
      Ewald summation: cut radius=    8.28  and  1
                       Madelung Wigner-Seitz=    1.76011888 (alpha=    2.83729748 rs=16.12911276)

 technical parameters:
      time step=      1.00     fictitious mass=  400000.0
      tolerance=0.100E-06 (energy)   0.100E-06 (density)
      maximum iterations =      1000 (   10 inner    100 outer )





== Energy Calculation ==


          ============ Grassmann lmbfgs iteration ============
     >>>  ITERATION STARTED AT Thu Apr 13 05:59:50 2023  <<<
    iter.           Energy         DeltaE       DeltaRho 
    ------------------------------------------------------
      10   -0.2828634925E+03   -0.12660E-02    0.54138E-01
     -  10 steepest descent iterations performed
      20   -0.2828725485E+03   -0.14148E-02    0.11206E-02
     -  10 steepest descent iterations performed
      30   -0.2828744453E+03   -0.12723E-03    0.73043E-04
      40   -0.2828757414E+03   -0.17466E-03    0.44802E-03
     -  10 steepest descent iterations performed
      50   -0.2828762155E+03   -0.25999E-04    0.36575E-04
      60   -0.2828764303E+03   -0.26795E-04    0.48744E-04
     -  10 steepest descent iterations performed
      70   -0.2828765942E+03   -0.17816E-04    0.28540E-04
      80   -0.2828768811E+03   -0.20732E-04    0.20792E-03
     -  10 steepest descent iterations performed
      90   -0.2828769638E+03   -0.54035E-05    0.40284E-05
     100   -0.2828770216E+03   -0.50262E-05    0.13029E-04
     110   -0.2828771685E+03   -0.99801E-05    0.15261E-03
     -  10 steepest descent iterations performed
     120   -0.2828772049E+03   -0.25545E-05    0.35057E-05
     130   -0.2828772662E+03   -0.14733E-04    0.10597E-03
     -  10 steepest descent iterations performed
     140   -0.2828773177E+03   -0.30032E-05    0.62918E-05
     150   -0.2828773351E+03   -0.19123E-05    0.60938E-05
     160   -0.2828773891E+03   -0.49049E-05    0.20968E-03
     -  10 steepest descent iterations performed
     170   -0.2828774489E+03   -0.36840E-05    0.15792E-05
     180   -0.2828774654E+03   -0.14704E-05    0.23009E-05
     190   -0.2828774729E+03   -0.62695E-06    0.19354E-05
     200   -0.2828775046E+03   -0.29596E-05    0.64450E-04
     -  10 steepest descent iterations performed
     210   -0.2828775212E+03   -0.99856E-06    0.10718E-05
     220   -0.2828775271E+03   -0.53573E-06    0.15806E-05
     230   -0.2828775318E+03   -0.52321E-06    0.11727E-05
     240   -0.2828775441E+03   -0.30368E-05    0.22614E-04
     -  10 steepest descent iterations performed
     250   -0.2828775541E+03   -0.49361E-06    0.65817E-06
     260   -0.2828775577E+03   -0.14558E-06    0.31303E-06
     270   -0.2828775608E+03   -0.37977E-06    0.41173E-05
     -  10 steepest descent iterations performed
     280   -0.2828775661E+03   -0.24101E-06    0.27348E-06
     290   -0.2828775698E+03   -0.77445E-06    0.17614E-05
     -  10 steepest descent iterations performed
     300   -0.2828775700E+03   -0.45712E-07    0.48966E-10
  *** tolerance ok. iteration terminated
     >>>  ITERATION ENDED   AT Thu Apr 13 06:02:47 2023  <<<


==  Summary Of Results  ==

 number of electrons: spin up=    8.00000  down=    7.00000 (real space)
     plane-wave part:             6.49880           5.98001 (real space)
      augmented part:             1.50120           1.01999 (real space)

 total     energy    :  -0.2828775700E+03 (   -0.28288E+03/ion)

 total paw energy    :  -0.9999912464E+04 (   -0.99999E+04/ion)
 total orbital energy:  -0.8750001664E+01 (   -0.58333E+00/electron)
 hartree   energy    :   0.2835152867E+02 (    0.18901E+01/electron)
 exc-corr  energy    :  -0.5642763218E+01 (   -0.37618E+00/electron)
 ion-ion   energy    :  -0.1227676794E+02 (   -0.12277E+02/ion)

 kinetic (planewave) :   0.2196180914E+02 (    0.14641E+01/electron)
 V_local (planewave) :  -0.9178502385E+02 (   -0.61190E+01/electron)
 V_nl    (planewave) :  -0.4952410832E+01 (   -0.33016E+00/electron)
 V_Coul  (planewave) :   0.5670305733E+02 (    0.37802E+01/electron)
 V_xc.   (planewave) :  -0.7297767054E+01 (   -0.48652E+00/electron)
 Virial Coefficient  :  -0.2155202429E+01

 kinetic (loc. basis):   0.1135681213E+03 (    0.75712E+01/electron)
 kinetic       (core):   0.1002084837E+05 (    0.10021E+05/ion)
 valence-core        :  -0.4952273311E+02 (   -0.33015E+01/electron)
 ncmp*V_local        :  -0.8301415916E+02 (   -0.55343E+01/electron)
 V_lpaw  (loc. basis):  -0.4392024480E+01 (   -0.29280E+00/electron)
 coulomb (loc. basis):  -0.2354780823E+01 (   -0.15699E+00/electron)
 coulomb  (ncmp-ncmp):   0.6984322941E+01 (    0.46562E+00/electron)
 coulomb    (ncmp-pw):   0.1662033361E+02 (    0.11080E+01/electron)
 exc-cor (loc. basis):  -0.2213754331E+03 (   -0.14758E+02/electron)
 pxc-cor (loc. basis):  -0.7471033264E+01 (   -0.74710E+01/electron)
 ion-core            :  -0.1973788326E+05 (   -0.19738E+05/ion)

 orbital energies:
    -0.9107143E-01 (  -2.478eV)
    -0.9326506E-01 (  -2.538eV)    -0.7424802E-01 (  -2.020eV)
    -0.9480699E-01 (  -2.580eV)    -0.7673885E-01 (  -2.088eV)
    -0.1361245E+00 (  -3.704eV)    -0.1338303E+00 (  -3.642eV)
    -0.7590724E+00 ( -20.656eV)    -0.7484567E+00 ( -20.367eV)
    -0.7651436E+00 ( -20.821eV)    -0.7519307E+00 ( -20.461eV)
    -0.7679987E+00 ( -20.898eV)    -0.7570498E+00 ( -20.601eV)
    -0.1759146E+01 ( -47.869eV)    -0.1741118E+01 ( -47.379eV)

 Total PSPW energy     :  -0.2828775700E+03


=== Spin Contamination ===

 <Sexact^2> =   0.75000000000000000     
 <S^2>      =    2.9005976020112811     



== Center of Charge ==

spin up     (    0.0000,    0.0000,    0.0000 )
spin down   (   -0.0000,    0.0000,    0.0000 )
     total  (   -0.0000,    0.0000,    0.0000 )
ionic       (    0.0000,    0.0000,    0.0000 )


== Molecular Dipole wrt Center of Mass ==

mu   =  (    0.0001,   -0.0001,   -0.0000 ) au
|mu| =     0.0001 au,       0.0002 Debye

 output psi filename:./perm/pspw-pbe-Pm1.movecs

 Writing Crystallographic Information File:./perm/Pm1.cif
   - cell not shifted (nwpw:cif_shift_cell .false.)


== Timing ==

cputime in seconds
  prologue    :   0.114626E+02
  main loop   :   0.176586E+03
  epilogue    :   0.166055E+00
  total       :   0.188215E+03
  cputime/step:   0.179275E+00       (     985 evalulations,     291 linesearches)


Time spent doing                        total          step       percent
  total time                 :   0.188217E+03  0.191083E+00       100.0 %
  i/o time                   :   0.107478E+02  0.109115E-01         5.7 %
  FFTs                       :   0.266396E+02  0.270452E-01        14.2 %
  dot products               :   0.298372E+02  0.302915E-01        15.9 %
  geodesic                   :   0.155276E+02  0.157640E-01         8.2 %
  ffm_dgemm                  :   0.648246E+00  0.658118E-03         0.3 %
  fmf_dgemm                  :   0.363888E+01  0.369430E-02         1.9 %
  mmm_dgemm                  :   0.333800E-01  0.338883E-04         0.0 %
  m_diagonalize              :   0.154846E-01  0.157204E-04         0.0 %
    - m_tredq                :   0.256288E+00  0.260191E-03         0.1 %
  exchange correlation       :   0.588839E+02  0.597806E-01        31.3 %
  local pseudopotentials     :   0.532000E-02  0.540102E-05         0.0 %
  non-local pseudopotentials :   0.390676E+02  0.396625E-01        20.8 %
  hartree potentials         :   0.299720E+00  0.304284E-03         0.2 %
  ion-ion interaction        :   0.345266E+01  0.350524E-02         1.8 %
  structure factors          :   0.225707E+01  0.229144E-02         1.2 %
  phase factors              :   0.199900E-05  0.202944E-08         0.0 %
  masking and packing        :   0.574551E+01  0.583301E-02         3.1 %
  queue fft                  :   0.406572E+02  0.412763E-01        21.6 %
  queue fft (serial)         :   0.160028E+02  0.162465E-01         8.5 %
  queue fft (message passing):   0.235370E+02  0.238954E-01        12.5 %
  paw gaussian integrals     :   0.572421E+00  0.581138E-03         0.3 %
  paw atomic coulomb         :   0.115804E+01  0.117567E-02         0.6 %
  paw atomic xc              :   0.782589E+01  0.794507E-02         4.2 %
  paw gen dEmult/dQlm        :   0.131699E-01  0.133705E-04         0.0 %
  paw gen dElocal/dQlm       :   0.177920E-01  0.180629E-04         0.0 %
  paw cmp operations         :   0.177920E-01  0.180629E-04         0.0 %
  nwpw_ugauss                :   0.300001E-08  0.304570E-11         0.0 %
  nwpw_wgauss                :   0.572064E+00  0.580776E-03         0.3 %
  nwpw_gaunt                 :   0.354044E+01  0.359436E-02         1.9 %
  non-local psp FFM          :   0.169537E+01  0.172119E-02         0.9 %
  non-local psp FMF          :   0.131403E+01  0.133404E-02         0.7 %
  non-local psp FFM A        :   0.366125E+00  0.371701E-03         0.2 %
  non-local psp FFM B        :   0.123330E+01  0.125209E-02         0.7 %

     >>>  JOB COMPLETED     AT Thu Apr 13 06:02:47 2023  <<<
          ****************************************************
          *                                                  *
          *               NWPW PSPW Calculation              *
          *                                                  *
          * [ (Grassmann/Stiefel manifold implementation)  ] *
          *                                                  *
          *      [ NorthWest Chemistry implementation ]      *
          *                                                  *
          *            version #5.10   06/12/02              *
          *                                                  *
          *    This code was developed by Eric J. Bylaska,   *
          *    and was based upon algorithms and code        *
          *    developed by the group of Prof. John H. Weare *
          *                                                  *
          ****************************************************
     >>>  JOB STARTED       AT Thu Apr 13 06:02:47 2023  <<<
          ================ input data ========================
 pseudopotential is not correctly formatted:Pm.vpp                                            

 Generated formatted_filename: ./perm/Pm.vpp
 - filtering pseudopotential -
 Error reading psi - bad grid
 nfft :                   96                   96                   96
 ngrid:                  112                  112                  112
 Error reading psi - bad grid
 nfft :                   96                   96                   96
 ngrid:                  112                  112                  112
 Error reading psi - bad grid

 Grid is being converted:
 ------------------------

 To turn off automatic grid conversion:

 set nwpw:psi_nogrid .false.

 old_filename: pspw-pbe-Pm1.movecs                               
 new_filename: pspw-pbe-Pm1.movecs                               
 converting  :  96x 96x 96 --> 112x112x112
converting .... psi:    1 spin: 1
converting .... psi:    2 spin: 1
converting .... psi:    3 spin: 1
converting .... psi:    4 spin: 1
converting .... psi:    5 spin: 1
converting .... psi:    6 spin: 1
converting .... psi:    7 spin: 1
converting .... psi:    8 spin: 1
converting .... psi:    1 spin: 2
converting .... psi:    2 spin: 2
converting .... psi:    3 spin: 2
converting .... psi:    4 spin: 2
converting .... psi:    5 spin: 2
converting .... psi:    6 spin: 2
converting .... psi:    7 spin: 2

 input psi filename:./perm/pspw-pbe-Pm1.movecs

 Warning - K.S. orbitals are not orthonormal. Applying Gram-Schmidt orthonormalization.
         - exact norm=0.150000E+02 norm=0.150000E+02 corrected norm=0.150000E+02 (error=0.275225E-05)


 number of processors used:         6
 processor grid           :   6 x   1
 parallel mapping         : 2d-hcurve
 parallel mapping         :  balanced
 number of threads        :         1
 parallel io              :       off

 options:
      boundary conditions  = periodic    (version3)
      electron spin        = unrestricted
      exchange-correlation = PBE96 (White and Bird) parameterization

 elements involved in the cluster:
      1: Pm  valence charge:15.0  core charge:46.0
             comment    : Parameterized Pm paw (4f5s5p5d5f6s6p projectors, 4/2/2022 by EJB)
             pseudpotential type            :   4
             loggrid parameter r0        : 0.200E-02
             loggrid parameter rmax      : 0.250E+02
             loggrid parameter npoints   :      3000
             augmentation sphere radius  :     2.392 ( 2254 npoints 2254 per task)
             compensation sigma          :     0.346
             total number of projectors  :        27
             n_ps (n) l          eig      #projector
                4 (4) f    -0.100862               7
                1 (5) s    -1.480381               1
                2 (5) p    -0.846855               3
                3 (5) d    -0.077151               5
                5 (5) f     1.000000               7
                2 (6) s    -0.132185               1
                3 (6) p    -0.049263               3


 total charge:   0.000

 atomic composition:
     Pm  :    1

 number of electrons: spin up=     8 (   8 per task)  down=     7 (   7 per task) (Fourier space)
 number of orbitals : spin up=     8 (   8 per task)  down=     7 (   7 per task) (Fourier space)

 supercell:
      cell_name:  cell_default                                      
      lattice:    a1=<  26.000   0.000   0.000 >
                  a2=<   0.000  26.000   0.000 >
                  a3=<   0.000   0.000  26.000 >
      reciprocal: b1=<   0.242   0.000   0.000 >
                  b2=<   0.000   0.242   0.000 >
                  b3=<   0.000   0.000   0.242 >
      lattice:    a=      26.000 b=     26.000 c=      26.000
                  alpha=  90.000 beta=  90.000 gamma=  90.000
                  omega=     17576.0

      density cutoff= 90.000  fft=112x112x112(   358500 waves    59750 per task)
      wavefnc cutoff= 45.000  fft=112x112x112(   126824 waves    21137 per task)
      paw integration: xc lmax=  0 compensation charge= two-electron Gaussian
      Ewald summation: cut radius=    8.28  and  1
                       Madelung Wigner-Seitz=    1.76011888 (alpha=    2.83729748 rs=16.12911276)

 technical parameters:
      time step=      1.00     fictitious mass=  400000.0
      tolerance=0.100E-06 (energy)   0.100E-06 (density)
      maximum iterations =      1000 (   10 inner    100 outer )





== Energy Calculation ==


          ============ Grassmann lmbfgs iteration ============
     >>>  ITERATION STARTED AT Thu Apr 13 06:03:00 2023  <<<
    iter.           Energy         DeltaE       DeltaRho 
    ------------------------------------------------------
      10   -0.2829154903E+03   -0.57124E-04    0.11800E-02
      20   -0.2829156974E+03   -0.10270E-04    0.12241E-04
      30   -0.2829157380E+03   -0.12230E-05    0.14875E-05
      40   -0.2829157488E+03   -0.88630E-06    0.15830E-05
      50   -0.2829157591E+03   -0.12075E-05    0.56742E-05
     -  10 steepest descent iterations performed
      60   -0.2829157663E+03   -0.63405E-06    0.35357E-06
      70   -0.2829157734E+03   -0.64250E-06    0.18803E-05
     -  10 steepest descent iterations performed
      80   -0.2829157784E+03   -0.55054E-06    0.34501E-06
      90   -0.2829157844E+03   -0.64164E-06    0.26083E-05
     -  10 steepest descent iterations performed
     100   -0.2829157902E+03   -0.51083E-06    0.31918E-06
     110   -0.2829157948E+03   -0.51238E-06    0.10212E-05
     -  10 steepest descent iterations performed
     120   -0.2829157986E+03   -0.41442E-06    0.35859E-06
     130   -0.2829158043E+03   -0.62767E-06    0.41169E-05
     -  10 steepest descent iterations performed
     140   -0.2829158107E+03   -0.46348E-06    0.45458E-06
     150   -0.2829158142E+03   -0.61842E-06    0.64290E-06
     -  10 steepest descent iterations performed
     160   -0.2829158173E+03   -0.43137E-06    0.47582E-06
     170   -0.2829158242E+03   -0.95609E-06    0.12588E-04
     -  10 steepest descent iterations performed
     180   -0.2829158350E+03   -0.41957E-06    0.68530E-06
     190   -0.2829158364E+03   -0.89127E-07    0.70680E-07
  *** tolerance ok. iteration terminated
     >>>  ITERATION ENDED   AT Thu Apr 13 06:06:15 2023  <<<


==  Summary Of Results  ==

 number of electrons: spin up=    8.00000  down=    7.00000 (real space)
     plane-wave part:             6.45604           5.93812 (real space)
      augmented part:             1.54396           1.06188 (real space)

 total     energy    :  -0.2829158364E+03 (   -0.28292E+03/ion)

 total paw energy    :  -0.9999950731E+04 (   -0.10000E+05/ion)
 total orbital energy:  -0.8671795169E+01 (   -0.57812E+00/electron)
 hartree   energy    :   0.2791645628E+02 (    0.18611E+01/electron)
 exc-corr  energy    :  -0.5584839971E+01 (   -0.37232E+00/electron)
 ion-ion   energy    :  -0.1227676794E+02 (   -0.12277E+02/ion)

 kinetic (planewave) :   0.2215728438E+02 (    0.14772E+01/electron)
 V_local (planewave) :  -0.9096625518E+02 (   -0.60644E+01/electron)
 V_nl    (planewave) :  -0.5437822821E+01 (   -0.36252E+00/electron)
 V_Coul  (planewave) :   0.5583291255E+02 (    0.37222E+01/electron)
 V_xc.   (planewave) :  -0.7219097656E+01 (   -0.48127E+00/electron)
 Virial Coefficient  :  -0.2156864635E+01

 kinetic (loc. basis):   0.1131692240E+03 (    0.75446E+01/electron)
 kinetic       (core):   0.1002084837E+05 (    0.10021E+05/ion)
 valence-core        :  -0.4933250620E+02 (   -0.32888E+01/electron)
 ncmp*V_local        :  -0.8580115993E+02 (   -0.57201E+01/electron)
 V_lpaw  (loc. basis):  -0.2558201271E+01 (   -0.17055E+00/electron)
 coulomb (loc. basis):  -0.2618497531E+01 (   -0.17457E+00/electron)
 coulomb  (ncmp-ncmp):   0.7460359143E+01 (    0.49736E+00/electron)
 coulomb    (ncmp-pw):   0.1696118355E+02 (    0.11307E+01/electron)
 exc-cor (loc. basis):  -0.2214421157E+03 (   -0.14763E+02/electron)
 pxc-cor (loc. basis):  -0.7560086202E+01 (   -0.75601E+01/electron)
 ion-core            :  -0.1973788326E+05 (   -0.19738E+05/ion)

 orbital energies:
    -0.8570118E-01 (  -2.332eV)
    -0.8746640E-01 (  -2.380eV)    -0.6876267E-01 (  -1.871eV)
    -0.8884164E-01 (  -2.418eV)    -0.7115895E-01 (  -1.936eV)
    -0.1307217E+00 (  -3.557eV)    -0.1289405E+00 (  -3.509eV)
    -0.7553473E+00 ( -20.554eV)    -0.7442333E+00 ( -20.252eV)
    -0.7612097E+00 ( -20.714eV)    -0.7485083E+00 ( -20.368eV)
    -0.7648825E+00 ( -20.814eV)    -0.7531861E+00 ( -20.495eV)
    -0.1750491E+01 ( -47.634eV)    -0.1732343E+01 ( -47.140eV)

 Total PSPW energy     :  -0.2829158364E+03


=== Spin Contamination ===

 <Sexact^2> =   0.75000000000000000     
 <S^2>      =    2.9811457603003531     



== Center of Charge ==

spin up     (    0.0000,   -0.0000,   -0.0000 )
spin down   (    0.0000,   -0.0000,   -0.0000 )
     total  (    0.0000,   -0.0000,   -0.0000 )
ionic       (    0.0000,    0.0000,    0.0000 )


== Molecular Dipole wrt Center of Mass ==

mu   =  (   -0.0000,    0.0000,    0.0000 ) au
|mu| =     0.0000 au,       0.0000 Debye

 output psi filename:./perm/pspw-pbe-Pm1.movecs

 Writing Crystallographic Information File:./perm/Pm1.cif
   - cell not shifted (nwpw:cif_shift_cell .false.)


== Timing ==

cputime in seconds
  prologue    :   0.132307E+02
  main loop   :   0.194747E+03
  epilogue    :   0.249593E+00
  total       :   0.208227E+03
  cputime/step:   0.354085E+00       (     550 evalulations,     186 linesearches)


Time spent doing                        total          step       percent
  total time                 :   0.208229E+03  0.378599E+00       100.0 %
  i/o time                   :   0.124207E+02  0.225830E-01         6.0 %
  FFTs                       :   0.315862E+02  0.574294E-01        15.2 %
  dot products               :   0.388498E+02  0.706359E-01        18.7 %
  geodesic                   :   0.197861E+02  0.359747E-01         9.5 %
  ffm_dgemm                  :   0.778383E+00  0.141524E-02         0.4 %
  fmf_dgemm                  :   0.414445E+01  0.753536E-02         2.0 %
  mmm_dgemm                  :   0.226122E-01  0.411130E-04         0.0 %
  m_diagonalize              :   0.978174E-02  0.177850E-04         0.0 %
    - m_tredq                :   0.145113E+00  0.263842E-03         0.1 %
  exchange correlation       :   0.592142E+02  0.107662E+00        28.4 %
  local pseudopotentials     :   0.744200E-02  0.135309E-04         0.0 %
  non-local pseudopotentials :   0.458468E+02  0.833578E-01        22.0 %
  hartree potentials         :   0.318813E+00  0.579659E-03         0.2 %
  ion-ion interaction        :   0.194415E+01  0.353482E-02         0.9 %
  structure factors          :   0.263646E+01  0.479356E-02         1.3 %
  phase factors              :   0.199900E-05  0.363455E-08         0.0 %
  masking and packing        :   0.573311E+01  0.104238E-01         2.8 %
  queue fft                  :   0.467794E+02  0.850535E-01        22.5 %
  queue fft (serial)         :   0.231799E+02  0.421453E-01        11.1 %
  queue fft (message passing):   0.225079E+02  0.409235E-01        10.8 %
  paw gaussian integrals     :   0.584474E+00  0.106268E-02         0.3 %
  paw atomic coulomb         :   0.646187E+00  0.117489E-02         0.3 %
  paw atomic xc              :   0.442232E+01  0.804058E-02         2.1 %
  paw gen dEmult/dQlm        :   0.754252E-02  0.137137E-04         0.0 %
  paw gen dElocal/dQlm       :   0.358090E-01  0.651073E-04         0.0 %
  paw cmp operations         :   0.358090E-01  0.651073E-04         0.0 %
  nwpw_ugauss                :   0.100000E-05  0.181818E-08         0.0 %
  nwpw_wgauss                :   0.584194E+00  0.106217E-02         0.3 %
  nwpw_gaunt                 :   0.365657E+01  0.664831E-02         1.8 %
  non-local psp FFM          :   0.180450E+01  0.328092E-02         0.9 %
  non-local psp FMF          :   0.134085E+01  0.243791E-02         0.6 %
  non-local psp FFM A        :   0.372995E+00  0.678174E-03         0.2 %
  non-local psp FFM B        :   0.135090E+01  0.245619E-02         0.6 %

     >>>  JOB COMPLETED     AT Thu Apr 13 06:06:15 2023  <<<
          ****************************************************
          *                                                  *
          *               NWPW PSPW Calculation              *
          *                                                  *
          * [ (Grassmann/Stiefel manifold implementation)  ] *
          *                                                  *
          *      [ NorthWest Chemistry implementation ]      *
          *                                                  *
          *            version #5.10   06/12/02              *
          *                                                  *
          *    This code was developed by Eric J. Bylaska,   *
          *    and was based upon algorithms and code        *
          *    developed by the group of Prof. John H. Weare *
          *                                                  *
          ****************************************************
     >>>  JOB STARTED       AT Thu Apr 13 06:06:15 2023  <<<
          ================ input data ========================
 pseudopotential is not correctly formatted:Pm.vpp                                            

 Generated formatted_filename: ./perm/Pm.vpp
 - filtering pseudopotential -
 Error reading psi - bad grid
 nfft :                  112                  112                  112
 ngrid:                  140                  140                  140
 Error reading psi - bad grid
 nfft :                  112                  112                  112
 ngrid:                  140                  140                  140
 Error reading psi - bad grid

 Grid is being converted:
 ------------------------

 To turn off automatic grid conversion:

 set nwpw:psi_nogrid .false.

 old_filename: pspw-pbe-Pm1.movecs                               
 new_filename: pspw-pbe-Pm1.movecs                               
 converting  : 112x112x112 --> 140x140x140
converting .... psi:    1 spin: 1
converting .... psi:    2 spin: 1
converting .... psi:    3 spin: 1
converting .... psi:    4 spin: 1
converting .... psi:    5 spin: 1
converting .... psi:    6 spin: 1
converting .... psi:    7 spin: 1
converting .... psi:    8 spin: 1
converting .... psi:    1 spin: 2
converting .... psi:    2 spin: 2
converting .... psi:    3 spin: 2
converting .... psi:    4 spin: 2
converting .... psi:    5 spin: 2
converting .... psi:    6 spin: 2
converting .... psi:    7 spin: 2

 input psi filename:./perm/pspw-pbe-Pm1.movecs

 Warning - K.S. orbitals are not orthonormal. Applying Gram-Schmidt orthonormalization.
         - exact norm=0.150000E+02 norm=0.150000E+02 corrected norm=0.150000E+02 (error=0.638496E-06)


 number of processors used:         6
 processor grid           :   6 x   1
 parallel mapping         : 2d-hcurve
 parallel mapping         :  balanced
 number of threads        :         1
 parallel io              :       off

 options:
      boundary conditions  = periodic    (version3)
      electron spin        = unrestricted
      exchange-correlation = PBE96 (White and Bird) parameterization

 elements involved in the cluster:
      1: Pm  valence charge:15.0  core charge:46.0
             comment    : Parameterized Pm paw (4f5s5p5d5f6s6p projectors, 4/2/2022 by EJB)
             pseudpotential type            :   4
             loggrid parameter r0        : 0.200E-02
             loggrid parameter rmax      : 0.250E+02
             loggrid parameter npoints   :      3000
             augmentation sphere radius  :     2.392 ( 2254 npoints 2254 per task)
             compensation sigma          :     0.346
             total number of projectors  :        27
             n_ps (n) l          eig      #projector
                4 (4) f    -0.100862               7
                1 (5) s    -1.480381               1
                2 (5) p    -0.846855               3
                3 (5) d    -0.077151               5
                5 (5) f     1.000000               7
                2 (6) s    -0.132185               1
                3 (6) p    -0.049263               3


 total charge:   0.000

 atomic composition:
     Pm  :    1

 number of electrons: spin up=     8 (   8 per task)  down=     7 (   7 per task) (Fourier space)
 number of orbitals : spin up=     8 (   8 per task)  down=     7 (   7 per task) (Fourier space)

 supercell:
      cell_name:  cell_default                                      
      lattice:    a1=<  26.000   0.000   0.000 >
                  a2=<   0.000  26.000   0.000 >
                  a3=<   0.000   0.000  26.000 >
      reciprocal: b1=<   0.242   0.000   0.000 >
                  b2=<   0.000   0.242   0.000 >
                  b3=<   0.000   0.000   0.242 >
      lattice:    a=      26.000 b=     26.000 c=      26.000
                  alpha=  90.000 beta=  90.000 gamma=  90.000
                  omega=     17576.0

      density cutoff=120.000  fft=140x140x140(   551891 waves    91981 per task)
      wavefnc cutoff= 60.000  fft=140x140x140(   195216 waves    32536 per task)
      paw integration: xc lmax=  0 compensation charge= two-electron Gaussian
      Ewald summation: cut radius=    8.28  and  1
                       Madelung Wigner-Seitz=    1.76011888 (alpha=    2.83729748 rs=16.12911276)

 technical parameters:
      time step=      1.00     fictitious mass=  400000.0
      tolerance=0.100E-06 (energy)   0.100E-06 (density)
      maximum iterations =      1000 (   10 inner    100 outer )





== Energy Calculation ==


          ============ Grassmann lmbfgs iteration ============
     >>>  ITERATION STARTED AT Thu Apr 13 06:06:36 2023  <<<
    iter.           Energy         DeltaE       DeltaRho 
    ------------------------------------------------------
      10   -0.2829329754E+03   -0.43390E-05    0.10206E-03
      20   -0.2829329870E+03   -0.39501E-06    0.11554E-05
      30   -0.2829329936E+03   -0.12711E-05    0.32020E-05
     -  10 steepest descent iterations performed
      40   -0.2829329982E+03   -0.34459E-06    0.16920E-06
      50   -0.2829330026E+03   -0.66073E-06    0.16204E-05
     -  10 steepest descent iterations performed
      60   -0.2829330061E+03   -0.29341E-06    0.26965E-06
      70   -0.2829330095E+03   -0.42707E-06    0.13033E-05
     -  10 steepest descent iterations performed
      80   -0.2829330126E+03   -0.25580E-06    0.22240E-06
      90   -0.2829330155E+03   -0.35182E-06    0.10557E-05
     -  10 steepest descent iterations performed
     100   -0.2829330183E+03   -0.23778E-06    0.22927E-06
     110   -0.2829330209E+03   -0.28380E-06    0.10332E-05
     -  10 steepest descent iterations performed
     120   -0.2829330236E+03   -0.21864E-06    0.22944E-06
     130   -0.2829330259E+03   -0.33300E-06    0.87782E-06
     -  10 steepest descent iterations performed
     140   -0.2829330283E+03   -0.21023E-06    0.19242E-06
     150   -0.2829330305E+03   -0.21254E-06    0.88717E-06
     -  10 steepest descent iterations performed
     160   -0.2829330329E+03   -0.19714E-06    0.22865E-06
     170   -0.2829330348E+03   -0.30450E-06    0.77903E-06
     -  10 steepest descent iterations performed
     180   -0.2829330369E+03   -0.18758E-06    0.16322E-06
     190   -0.2829330388E+03   -0.15160E-06    0.74976E-06
     200   -0.2829330644E+03   -0.15950E-05    0.28313E-03
     -  10 steepest descent iterations performed
     210   -0.2829330797E+03   -0.50304E-06    0.16192E-06
     220   -0.2829330811E+03   -0.97754E-07    0.16505E-07
  *** tolerance ok. iteration terminated
     >>>  ITERATION ENDED   AT Thu Apr 13 06:13:23 2023  <<<


==  Summary Of Results  ==

 number of electrons: spin up=    8.00000  down=    7.00000 (real space)
     plane-wave part:             6.43900           5.92322 (real space)
      augmented part:             1.56100           1.07678 (real space)

 total     energy    :  -0.2829330811E+03 (   -0.28293E+03/ion)

 total paw energy    :  -0.9999967975E+04 (   -0.10000E+05/ion)
 total orbital energy:  -0.8679781388E+01 (   -0.57865E+00/electron)
 hartree   energy    :   0.2772720191E+02 (    0.18485E+01/electron)
 exc-corr  energy    :  -0.5564045120E+01 (   -0.37094E+00/electron)
 ion-ion   energy    :  -0.1227676794E+02 (   -0.12277E+02/ion)

 kinetic (planewave) :   0.2219117016E+02 (    0.14794E+01/electron)
 V_local (planewave) :  -0.9062516992E+02 (   -0.60417E+01/electron)
 V_nl    (planewave) :  -0.5592392059E+01 (   -0.37283E+00/electron)
 V_Coul  (planewave) :   0.5545440382E+02 (    0.36970E+01/electron)
 V_xc.   (planewave) :  -0.7191373546E+01 (   -0.47942E+00/electron)
 Virial Coefficient  :  -0.2160973548E+01

 kinetic (loc. basis):   0.1129807482E+03 (    0.75320E+01/electron)
 kinetic       (core):   0.1002084837E+05 (    0.10021E+05/ion)
 valence-core        :  -0.4922872566E+02 (   -0.32819E+01/electron)
 ncmp*V_local        :  -0.8685283605E+02 (   -0.57902E+01/electron)
 V_lpaw  (loc. basis):  -0.1822134639E+01 (   -0.12148E+00/electron)
 coulomb (loc. basis):  -0.2725870180E+01 (   -0.18172E+00/electron)
 coulomb  (ncmp-ncmp):   0.7644788138E+01 (    0.50965E+00/electron)
 coulomb    (ncmp-pw):   0.1708358016E+02 (    0.11389E+01/electron)
 exc-cor (loc. basis):  -0.2214650202E+03 (   -0.14764E+02/electron)
 pxc-cor (loc. basis):  -0.7590859983E+01 (   -0.75909E+01/electron)
 ion-core            :  -0.1973788326E+05 (   -0.19738E+05/ion)

 orbital energies:
    -0.8783619E-01 (  -2.390eV)
    -0.8914565E-01 (  -2.426eV)    -0.7044471E-01 (  -1.917eV)
    -0.9097975E-01 (  -2.476eV)    -0.7312077E-01 (  -1.990eV)
    -0.1306101E+00 (  -3.554eV)    -0.1288517E+00 (  -3.506eV)
    -0.7551365E+00 ( -20.548eV)    -0.7439460E+00 ( -20.244eV)
    -0.7602685E+00 ( -20.688eV)    -0.7492680E+00 ( -20.389eV)
    -0.7661539E+00 ( -20.848eV)    -0.7529331E+00 ( -20.489eV)
    -0.1749618E+01 ( -47.610eV)    -0.1731468E+01 ( -47.116eV)

 Total PSPW energy     :  -0.2829330811E+03


=== Spin Contamination ===

 <Sexact^2> =   0.75000000000000000     
 <S^2>      =    3.0041512993911264     



== Center of Charge ==

spin up     (   -0.0000,    0.0000,    0.0000 )
spin down   (   -0.0000,    0.0000,    0.0000 )
     total  (   -0.0000,    0.0000,    0.0000 )
ionic       (    0.0000,    0.0000,    0.0000 )


== Molecular Dipole wrt Center of Mass ==

mu   =  (    0.0000,   -0.0000,   -0.0000 ) au
|mu| =     0.0000 au,       0.0000 Debye

 output psi filename:./perm/pspw-pbe-Pm1.movecs

 Writing Crystallographic Information File:./perm/Pm1.cif
   - cell not shifted (nwpw:cif_shift_cell .false.)


== Timing ==

cputime in seconds
  prologue    :   0.212469E+02
  main loop   :   0.407004E+03
  epilogue    :   0.577033E+00
  total       :   0.428828E+03
  cputime/step:   0.676086E+00       (     602 evalulations,     217 linesearches)


Time spent doing                        total          step       percent
  total time                 :   0.428830E+03  0.712342E+00       100.0 %
  i/o time                   :   0.202991E+02  0.337194E-01         4.7 %
  FFTs                       :   0.731788E+02  0.121560E+00        17.1 %
  dot products               :   0.760463E+02  0.126323E+00        17.7 %
  geodesic                   :   0.368619E+02  0.612323E-01         8.6 %
  ffm_dgemm                  :   0.174759E+01  0.290298E-02         0.4 %
  fmf_dgemm                  :   0.650086E+01  0.107988E-01         1.5 %
  mmm_dgemm                  :   0.311985E-01  0.518247E-04         0.0 %
  m_diagonalize              :   0.119227E-01  0.198051E-04         0.0 %
    - m_tredq                :   0.158436E+00  0.263183E-03         0.0 %
  exchange correlation       :   0.133077E+03  0.221058E+00        31.0 %
  local pseudopotentials     :   0.131460E-01  0.218372E-04         0.0 %
  non-local pseudopotentials :   0.847652E+02  0.140806E+00        19.8 %
  hartree potentials         :   0.635745E+00  0.105605E-02         0.1 %
  ion-ion interaction        :   0.215601E+01  0.358141E-02         0.5 %
  structure factors          :   0.444136E+01  0.737768E-02         1.0 %
  phase factors              :   0.399900E-05  0.664286E-08         0.0 %
  masking and packing        :   0.106061E+02  0.176180E-01         2.5 %
  queue fft                  :   0.101902E+03  0.169273E+00        23.8 %
  queue fft (serial)         :   0.497566E+02  0.826521E-01        11.6 %
  queue fft (message passing):   0.499506E+02  0.829744E-01        11.6 %
  paw gaussian integrals     :   0.572111E+00  0.950350E-03         0.1 %
  paw atomic coulomb         :   0.707383E+00  0.117505E-02         0.2 %
  paw atomic xc              :   0.485804E+01  0.806984E-02         1.1 %
  paw gen dEmult/dQlm        :   0.950457E-02  0.157883E-04         0.0 %
  paw gen dElocal/dQlm       :   0.545570E-01  0.906262E-04         0.0 %
  paw cmp operations         :   0.545570E-01  0.906262E-04         0.0 %
  nwpw_ugauss                :   0.200000E-05  0.332226E-08         0.0 %
  nwpw_wgauss                :   0.571783E+00  0.949806E-03         0.1 %
  nwpw_gaunt                 :   0.535717E+01  0.889895E-02         1.2 %
  non-local psp FFM          :   0.304584E+01  0.505954E-02         0.7 %
  non-local psp FMF          :   0.270490E+01  0.449318E-02         0.6 %
  non-local psp FFM A        :   0.615357E+00  0.102219E-02         0.1 %
  non-local psp FFM B        :   0.229842E+01  0.381797E-02         0.5 %

     >>>  JOB COMPLETED     AT Thu Apr 13 06:13:24 2023  <<<

 Task  times  cpu:      937.1s     wall:      937.1s


                                NWChem Input Module
                                -------------------


 Summary of allocated global arrays
-----------------------------------
  No active global arrays


MA_summarize_allocated_blocks: starting scan ...
MA_summarize_allocated_blocks: scan completed: 0 heap blocks, 0 stack blocks
MA usage statistics:

	allocation statistics:
					      heap	     stack
					      ----	     -----
	current number of blocks	         0	         0
	maximum number of blocks	       380	        21
	current total bytes		         0	         0
	maximum total bytes		 533458984	 306153448
	maximum total K-bytes		    533459	    306154
	maximum total M-bytes		       534	       307


                                     CITATION
                                     --------
                Please cite the following reference when publishing
                           results obtained with NWChem:

          E. Apra, E. J. Bylaska, W. A. de Jong, N. Govind, K. Kowalski,
       T. P. Straatsma, M. Valiev, H. J. J. van Dam, Y. Alexeev, J. Anchell,
       V. Anisimov, F. W. Aquino, R. Atta-Fynn, J. Autschbach, N. P. Bauman,
     J. C. Becca, D. E. Bernholdt, K. Bhaskaran-Nair, S. Bogatko, P. Borowski,
         J. Boschen, J. Brabec, A. Bruner, E. Cauet, Y. Chen, G. N. Chuev,
      C. J. Cramer, J. Daily, M. J. O. Deegan, T. H. Dunning Jr., M. Dupuis,
   K. G. Dyall, G. I. Fann, S. A. Fischer, A. Fonari, H. Fruchtl, L. Gagliardi,
      J. Garza, N. Gawande, S. Ghosh, K. Glaesemann, A. W. Gotz, J. Hammond,
       V. Helms, E. D. Hermes, K. Hirao, S. Hirata, M. Jacquelin, L. Jensen,
   B. G. Johnson, H. Jonsson, R. A. Kendall, M. Klemm, R. Kobayashi, V. Konkov,
      S. Krishnamoorthy, M. Krishnan, Z. Lin, R. D. Lins, R. J. Littlefield,
      A. J. Logsdail, K. Lopata, W. Ma, A. V. Marenich, J. Martin del Campo,
   D. Mejia-Rodriguez, J. E. Moore, J. M. Mullin, T. Nakajima, D. R. Nascimento,
    J. A. Nichols, P. J. Nichols, J. Nieplocha, A. Otero-de-la-Roza, B. Palmer,
    A. Panyala, T. Pirojsirikul, B. Peng, R. Peverati, J. Pittner, L. Pollack,
   R. M. Richard, P. Sadayappan, G. C. Schatz, W. A. Shelton, D. W. Silverstein,
   D. M. A. Smith, T. A. Soares, D. Song, M. Swart, H. L. Taylor, G. S. Thomas,
            V. Tipparaju, D. G. Truhlar, K. Tsemekhman, T. Van Voorhis,
      A. Vazquez-Mayagoitia, P. Verma, O. Villa, A. Vishnu, K. D. Vogiatzis,
        D. Wang, J. H. Weare, M. J. Williamson, T. L. Windus, K. Wolinski,
        A. T. Wong, Q. Wu, C. Yang, Q. Yu, M. Zacharias, Z. Zhang, Y. Zhao,
                                and R. J. Harrison
                        "NWChem: Past, present, and future
                         J. Chem. Phys. 152, 184102 (2020)
                               doi:10.1063/5.0004997

                                      AUTHORS
                                      -------
  E. Apra, E. J. Bylaska, N. Govind, K. Kowalski, M. Valiev, D. Mejia-Rodriguez,
       A. Kunitsa, N. P. Bauman, A. Panyala, W. A. de Jong, T. P. Straatsma,
   H. J. J. van Dam, D. Wang, T. L. Windus, J. Hammond, J. Autschbach, A. Woods,
    K. Bhaskaran-Nair, J. Brabec, K. Lopata, S. A. Fischer, S. Krishnamoorthy,
     M. Jacquelin, W. Ma, M. Klemm, O. Villa, Y. Chen, V. Anisimov, F. Aquino,
     S. Hirata, M. T. Hackler, E. Hermes, L. Jensen, J. E. Moore, J. C. Becca,
      V. Konjkov, T. Risthaus, M. Malagoli, A. Marenich, A. Otero-de-la-Roza,
        J. Mullin, P. Nichols, R. Peverati, J. Pittner, Y. Zhao, P.-D. Fan,
        A. Fonari, M. J. Williamson, R. J. Harrison, J. R. Rehr, M. Dupuis,
     D. Silverstein, D. M. A. Smith, J. Nieplocha, V. Tipparaju, M. Krishnan,
     B. E. Van Kuiken, A. Vazquez-Mayagoitia, M. Swart, Q. Wu, T. Van Voorhis,
     A. A. Auer, M. Nooijen, L. D. Crosby, E. Brown, G. Cisneros, G. I. Fann,
   H. Fruchtl, J. Garza, K. Hirao, R. A. Kendall, J. A. Nichols, K. Tsemekhman,
    K. Wolinski, J. Anchell, D. E. Bernholdt, P. Borowski, T. Clark, D. Clerc,
   H. Dachsel, M. J. O. Deegan, K. Dyall, D. Elwood, E. Glendening, M. Gutowski,
   A. C. Hess, J. Jaffe, B. G. Johnson, J. Ju, R. Kobayashi, R. Kutteh, Z. Lin,
   R. Littlefield, X. Long, B. Meng, T. Nakajima, S. Niu, L. Pollack, M. Rosing,
   K. Glaesemann, G. Sandrone, M. Stave, H. Taylor, G. Thomas, J. H. van Lenthe,
                               A. T. Wong, Z. Zhang.

 Total times  cpu:      937.1s     wall:      937.1s
